 Entering Gaussian System, Link 0=g16
 Input=thmono_conformation1.x.inp
 Output=thmono_conformation1.x.inp.out
 Initial command:
 /usr/local/G16B/g16/l1.exe "/scratch/kotrc/thymono/scan/Gau-7189.inp" -scrdir="/scratch/kotrc/thymono/scan/"
 Entering Link 1 = /usr/local/G16B/g16/l1.exe PID=      7190.
  
 Copyright (c) 1988-2017, Gaussian, Inc.  All Rights Reserved.
  
 This is part of the Gaussian(R) 16 program.  It is based on
 the Gaussian(R) 09 system (copyright 2009, Gaussian, Inc.),
 the Gaussian(R) 03 system (copyright 2003, Gaussian, Inc.),
 the Gaussian(R) 98 system (copyright 1998, Gaussian, Inc.),
 the Gaussian(R) 94 system (copyright 1995, Gaussian, Inc.),
 the Gaussian 92(TM) system (copyright 1992, Gaussian, Inc.),
 the Gaussian 90(TM) system (copyright 1990, Gaussian, Inc.),
 the Gaussian 88(TM) system (copyright 1988, Gaussian, Inc.),
 the Gaussian 86(TM) system (copyright 1986, Carnegie Mellon
 University), and the Gaussian 82(TM) system (copyright 1983,
 Carnegie Mellon University). Gaussian is a federally registered
 trademark of Gaussian, Inc.
  
 This software contains proprietary and confidential information,
 including trade secrets, belonging to Gaussian, Inc.
  
 This software is provided under written license and may be
 used, copied, transmitted, or stored only in accord with that
 written license.
  
 The following legend is applicable only to US Government
 contracts under FAR:
  
                    RESTRICTED RIGHTS LEGEND
  
 Use, reproduction and disclosure by the US Government is
 subject to restrictions as set forth in subparagraphs (a)
 and (c) of the Commercial Computer Software - Restricted
 Rights clause in FAR 52.227-19.
  
 Gaussian, Inc.
 340 Quinnipiac St., Bldg. 40, Wallingford CT 06492
  
  
 ---------------------------------------------------------------
 Warning -- This program may not be used in any manner that
 competes with the business of Gaussian, Inc. or will provide
 assistance to any competitor of Gaussian, Inc.  The licensee
 of this program is prohibited from giving any competitor of
 Gaussian, Inc. access to this program.  By using this program,
 the user acknowledges that Gaussian, Inc. is engaged in the
 business of creating and licensing software in the field of
 computational chemistry and represents and warrants to the
 licensee that it is not a competitor of Gaussian, Inc. and that
 it will not use this program in any manner prohibited above.
 ---------------------------------------------------------------
  

 Cite this work as:
 Gaussian 16, Revision B.01,
 M. J. Frisch, G. W. Trucks, H. B. Schlegel, G. E. Scuseria, 
 M. A. Robb, J. R. Cheeseman, G. Scalmani, V. Barone, 
 G. A. Petersson, H. Nakatsuji, X. Li, M. Caricato, A. V. Marenich, 
 J. Bloino, B. G. Janesko, R. Gomperts, B. Mennucci, H. P. Hratchian, 
 J. V. Ortiz, A. F. Izmaylov, J. L. Sonnenberg, D. Williams-Young, 
 F. Ding, F. Lipparini, F. Egidi, J. Goings, B. Peng, A. Petrone, 
 T. Henderson, D. Ranasinghe, V. G. Zakrzewski, J. Gao, N. Rega, 
 G. Zheng, W. Liang, M. Hada, M. Ehara, K. Toyota, R. Fukuda, 
 J. Hasegawa, M. Ishida, T. Nakajima, Y. Honda, O. Kitao, H. Nakai, 
 T. Vreven, K. Throssell, J. A. Montgomery, Jr., J. E. Peralta, 
 F. Ogliaro, M. J. Bearpark, J. J. Heyd, E. N. Brothers, K. N. Kudin, 
 V. N. Staroverov, T. A. Keith, R. Kobayashi, J. Normand, 
 K. Raghavachari, A. P. Rendell, J. C. Burant, S. S. Iyengar, 
 J. Tomasi, M. Cossi, J. M. Millam, M. Klene, C. Adamo, R. Cammi, 
 J. W. Ochterski, R. L. Martin, K. Morokuma, O. Farkas, 
 J. B. Foresman, and D. J. Fox, Gaussian, Inc., Wallingford CT, 2016.
 
 ******************************************
 Gaussian 16:  ES64L-G16RevB.01 20-Dec-2017
                22-Jun-2020 
 ******************************************
 %chk=XX.chk
 %mem=1GB
 %nproc=4
 Will use up to    4 processors via shared memory.
 ----------------------------------------------------------------------
 #pm3 opt iop(2/11=1) nosymm scrf=(cpcm,solvent=water) Geom=(NoDistance
 ,NoAngle)
 ----------------------------------------------------------------------
 1/18=20,19=15,26=6,38=1/1,3;
 2/9=11,11=1,12=2,15=1,17=6,18=5,40=1/2;
 3/5=2,25=1,41=800000,70=2101,71=1,72=1/1,2,3;
 4/35=1/1;
 5/5=2,35=1,38=5,53=1/2;
 6/7=2,8=2,9=2,10=2,28=1/1;
 7/30=1/1,2,3,16;
 1/18=20,19=15,26=6/3(2);
 2/9=11,11=1,15=1/2;
 99//99;
 2/9=11,11=1,15=1/2;
 3/5=2,25=1,41=800000,70=2105,71=1,72=1,135=20/1,2,3;
 4/5=5,16=3,35=1/1;
 5/5=2,35=1,38=5,53=1/2;
 7/30=1/1,2,3,16;
 1/18=20,19=15,26=6/3(-5);
 2/9=11,11=1,15=1/2;
 6/7=2,8=2,9=2,10=2,19=2,28=1/1;
 99/9=1/99;
 Leave Link    1 at Mon Jun 22 21:46:16 2020, MaxMem=   134217728 cpu:               0.1 elap:               0.0
 (Enter /usr/local/G16B/g16/l101.exe)
 ---------------------------------------------------------
 C:\Users\honza\Desktop\thmono\scan\thmono_conformation1.x
 ---------------------------------------------------------
 Symbolic Z-matrix:
 Charge = -2 Multiplicity = 1
 8                    -6.78749  -1.21849   1.34352 
 15                   -5.59879  -2.18493   1.23373 
 8                    -4.44354  -1.22824   1.22132 
 6                    -3.13974  -1.7549    1.10771 
 1                    -3.0186   -2.32453   0.17597 
 1                    -2.90294  -2.4251    1.94366 
 6                    -2.15291  -0.59176   1.12865 
 1                    -2.33461   0.01134   2.02587 
 6                    -2.19908   0.303    -0.12287 
 8                    -2.19744   1.71001   0.15469 
 1                    -1.8156    1.88193   1.02377 
 6                    -0.91237  -0.07885  -0.88735 
 1                    -1.10539  -0.94702  -1.52117 
 8                    -0.40908   0.94875  -1.70869 
 1                    -0.68706   1.78537  -1.30354 
 1                    -3.09328   0.11677  -0.71516 
 8                    -0.8117   -1.14419   1.2011 
 6                     0.02963  -0.48621   0.26321 
 1                     0.50541   0.3993    0.69836 
 8                    -5.50345  -2.94346  -0.10356 
 8                    -5.36834  -3.07094   2.47287 
 7                     1.31809  -1.20205  -0.0151 
 6                     2.44825  -0.46658   0.05065 
 8                     2.38273   0.73022   0.11014 
 7                     3.65213  -1.07748   0.04948 
 1                     4.50614  -0.52176   0.09934 
 6                     1.40927  -2.86761  -0.09789 
 6                     2.70396  -3.24986  -0.08514 
 6                     2.7842   -4.71595  -0.15802 
 1                     2.59613  -5.13962   0.8286 
 1                     2.03775  -5.0863   -0.86089 
 1                     3.77827  -5.00906  -0.49583 
 6                     3.87602  -2.48716  -0.01678 
 8                     4.94625  -3.03022  -0.01787 
 1                     0.64698  -3.23973  -0.78256 
 
 ITRead=  0  0  0  0  0  0  0  0  0  0  0  0  0  0  0  0  0  0  0  0
 ITRead=  0  0  0  0  0  0  0  0  0  0  0  0  0  0  0
 MicOpt= -1 -1 -1 -1 -1 -1 -1 -1 -1 -1 -1 -1 -1 -1 -1 -1 -1 -1 -1 -1
 MicOpt= -1 -1 -1 -1 -1 -1 -1 -1 -1 -1 -1 -1 -1 -1 -1
 NAtoms=     35 NQM=       35 NQMF=       0 NMMI=      0 NMMIF=      0
                NMic=       0 NMicF=      0.
                    Isotopes and Nuclear Properties:
 (Nuclear quadrupole moments (NQMom) in fm**2, nuclear magnetic moments (NMagM)
  in nuclear magnetons)

  Atom         1           2           3           4           5           6           7           8           9          10
 IAtWgt=          16          31          16          12           1           1          12           1          12          16
 AtmWgt=  15.9949146  30.9737634  15.9949146  12.0000000   1.0078250   1.0078250  12.0000000   1.0078250  12.0000000  15.9949146
 NucSpn=           0           1           0           0           1           1           0           1           0           0
 AtZEff=  -0.0000000  -0.0000000  -0.0000000  -0.0000000  -0.0000000  -0.0000000  -0.0000000  -0.0000000  -0.0000000  -0.0000000
 NQMom=    0.0000000   0.0000000   0.0000000   0.0000000   0.0000000   0.0000000   0.0000000   0.0000000   0.0000000   0.0000000
 NMagM=    0.0000000   1.1316000   0.0000000   0.0000000   2.7928460   2.7928460   0.0000000   2.7928460   0.0000000   0.0000000
 AtZNuc=   8.0000000  15.0000000   8.0000000   6.0000000   1.0000000   1.0000000   6.0000000   1.0000000   6.0000000   8.0000000

  Atom        11          12          13          14          15          16          17          18          19          20
 IAtWgt=           1          12           1          16           1           1          16          12           1          16
 AtmWgt=   1.0078250  12.0000000   1.0078250  15.9949146   1.0078250   1.0078250  15.9949146  12.0000000   1.0078250  15.9949146
 NucSpn=           1           0           1           0           1           1           0           0           1           0
 AtZEff=  -0.0000000  -0.0000000  -0.0000000  -0.0000000  -0.0000000  -0.0000000  -0.0000000  -0.0000000  -0.0000000  -0.0000000
 NQMom=    0.0000000   0.0000000   0.0000000   0.0000000   0.0000000   0.0000000   0.0000000   0.0000000   0.0000000   0.0000000
 NMagM=    2.7928460   0.0000000   2.7928460   0.0000000   2.7928460   2.7928460   0.0000000   0.0000000   2.7928460   0.0000000
 AtZNuc=   1.0000000   6.0000000   1.0000000   8.0000000   1.0000000   1.0000000   8.0000000   6.0000000   1.0000000   8.0000000

  Atom        21          22          23          24          25          26          27          28          29          30
 IAtWgt=          16          14          12          16          14           1          12          12          12           1
 AtmWgt=  15.9949146  14.0030740  12.0000000  15.9949146  14.0030740   1.0078250  12.0000000  12.0000000  12.0000000   1.0078250
 NucSpn=           0           2           0           0           2           1           0           0           0           1
 AtZEff=  -0.0000000  -0.0000000  -0.0000000  -0.0000000  -0.0000000  -0.0000000  -0.0000000  -0.0000000  -0.0000000  -0.0000000
 NQMom=    0.0000000   2.0440000   0.0000000   0.0000000   2.0440000   0.0000000   0.0000000   0.0000000   0.0000000   0.0000000
 NMagM=    0.0000000   0.4037610   0.0000000   0.0000000   0.4037610   2.7928460   0.0000000   0.0000000   0.0000000   2.7928460
 AtZNuc=   8.0000000   7.0000000   6.0000000   8.0000000   7.0000000   1.0000000   6.0000000   6.0000000   6.0000000   1.0000000

  Atom        31          32          33          34          35
 IAtWgt=           1           1          12          16           1
 AtmWgt=   1.0078250   1.0078250  12.0000000  15.9949146   1.0078250
 NucSpn=           1           1           0           0           1
 AtZEff=  -0.0000000  -0.0000000  -0.0000000  -0.0000000  -0.0000000
 NQMom=    0.0000000   0.0000000   0.0000000   0.0000000   0.0000000
 NMagM=    2.7928460   2.7928460   0.0000000   0.0000000   2.7928460
 AtZNuc=   1.0000000   1.0000000   6.0000000   8.0000000   1.0000000
 Leave Link  101 at Mon Jun 22 21:46:16 2020, MaxMem=   134217728 cpu:               0.8 elap:               0.2
 (Enter /usr/local/G16B/g16/l103.exe)

 GradGradGradGradGradGradGradGradGradGradGradGradGradGradGradGradGradGrad
 Berny optimization.
 Initialization pass.
                           ----------------------------
                           !    Initial Parameters    !
                           ! (Angstroms and Degrees)  !
 --------------------------                            --------------------------
 ! Name  Definition              Value          Derivative Info.                !
 --------------------------------------------------------------------------------
 ! R1    R(1,2)                  1.5359         estimate D2E/DX2                !
 ! R2    R(2,3)                  1.5            estimate D2E/DX2                !
 ! R3    R(2,20)                 1.5404         estimate D2E/DX2                !
 ! R4    R(2,21)                 1.5406         estimate D2E/DX2                !
 ! R5    R(3,4)                  1.4107         estimate D2E/DX2                !
 ! R6    R(4,5)                  1.0988         estimate D2E/DX2                !
 ! R7    R(4,6)                  1.0973         estimate D2E/DX2                !
 ! R8    R(4,7)                  1.5255         estimate D2E/DX2                !
 ! R9    R(7,8)                  1.0962         estimate D2E/DX2                !
 ! R10   R(7,9)                  1.5392         estimate D2E/DX2                !
 ! R11   R(7,17)                 1.4523         estimate D2E/DX2                !
 ! R12   R(9,10)                 1.4341         estimate D2E/DX2                !
 ! R13   R(9,12)                 1.5446         estimate D2E/DX2                !
 ! R14   R(9,16)                 1.0886         estimate D2E/DX2                !
 ! R15   R(10,11)                0.9647         estimate D2E/DX2                !
 ! R16   R(12,13)                1.0921         estimate D2E/DX2                !
 ! R17   R(12,14)                1.4085         estimate D2E/DX2                !
 ! R18   R(12,18)                1.5418         estimate D2E/DX2                !
 ! R19   R(14,15)                0.9702         estimate D2E/DX2                !
 ! R20   R(17,18)                1.4214         estimate D2E/DX2                !
 ! R21   R(18,19)                1.0954         estimate D2E/DX2                !
 ! R22   R(18,22)                1.5            estimate D2E/DX2                !
 ! R23   R(22,23)                1.35           estimate D2E/DX2                !
 ! R24   R(22,27)                1.6701         estimate D2E/DX2                !
 ! R25   R(23,24)                1.2001         estimate D2E/DX2                !
 ! R26   R(23,25)                1.35           estimate D2E/DX2                !
 ! R27   R(25,26)                1.0201         estimate D2E/DX2                !
 ! R28   R(25,33)                1.4289         estimate D2E/DX2                !
 ! R29   R(27,28)                1.35           estimate D2E/DX2                !
 ! R30   R(27,35)                1.0901         estimate D2E/DX2                !
 ! R31   R(28,29)                1.4701         estimate D2E/DX2                !
 ! R32   R(28,33)                1.4            estimate D2E/DX2                !
 ! R33   R(29,30)                1.0901         estimate D2E/DX2                !
 ! R34   R(29,31)                1.0901         estimate D2E/DX2                !
 ! R35   R(29,32)                1.09           estimate D2E/DX2                !
 ! R36   R(33,34)                1.2001         estimate D2E/DX2                !
 ! A1    A(1,2,3)              101.264          estimate D2E/DX2                !
 ! A2    A(1,2,20)             114.822          estimate D2E/DX2                !
 ! A3    A(1,2,21)             114.843          estimate D2E/DX2                !
 ! A4    A(3,2,20)             105.0234         estimate D2E/DX2                !
 ! A5    A(3,2,21)             104.9659         estimate D2E/DX2                !
 ! A6    A(20,2,21)            113.9417         estimate D2E/DX2                !
 ! A7    A(2,3,4)              118.317          estimate D2E/DX2                !
 ! A8    A(3,4,5)              111.329          estimate D2E/DX2                !
 ! A9    A(3,4,6)              111.476          estimate D2E/DX2                !
 ! A10   A(3,4,7)              108.186          estimate D2E/DX2                !
 ! A11   A(5,4,6)              107.7936         estimate D2E/DX2                !
 ! A12   A(5,4,7)              109.6089         estimate D2E/DX2                !
 ! A13   A(6,4,7)              108.3992         estimate D2E/DX2                !
 ! A14   A(4,7,8)              108.874          estimate D2E/DX2                !
 ! A15   A(4,7,9)              114.373          estimate D2E/DX2                !
 ! A16   A(4,7,17)             107.942          estimate D2E/DX2                !
 ! A17   A(8,7,9)              109.9196         estimate D2E/DX2                !
 ! A18   A(8,7,17)             108.7538         estimate D2E/DX2                !
 ! A19   A(9,7,17)             106.8211         estimate D2E/DX2                !
 ! A20   A(7,9,10)             114.389          estimate D2E/DX2                !
 ! A21   A(7,9,12)             103.517          estimate D2E/DX2                !
 ! A22   A(7,9,16)             111.567          estimate D2E/DX2                !
 ! A23   A(10,9,12)            109.717          estimate D2E/DX2                !
 ! A24   A(10,9,16)            105.907          estimate D2E/DX2                !
 ! A25   A(12,9,16)            111.8814         estimate D2E/DX2                !
 ! A26   A(9,10,11)            110.466          estimate D2E/DX2                !
 ! A27   A(9,12,13)            109.666          estimate D2E/DX2                !
 ! A28   A(9,12,14)            113.948          estimate D2E/DX2                !
 ! A29   A(9,12,18)            101.8259         estimate D2E/DX2                !
 ! A30   A(13,12,14)           107.7399         estimate D2E/DX2                !
 ! A31   A(13,12,18)           109.332          estimate D2E/DX2                !
 ! A32   A(14,12,18)           114.1804         estimate D2E/DX2                !
 ! A33   A(12,14,15)           106.453          estimate D2E/DX2                !
 ! A34   A(7,17,18)            109.732          estimate D2E/DX2                !
 ! A35   A(12,18,17)           104.659          estimate D2E/DX2                !
 ! A36   A(12,18,19)           110.3798         estimate D2E/DX2                !
 ! A37   A(12,18,22)           120.8269         estimate D2E/DX2                !
 ! A38   A(17,18,19)           111.666          estimate D2E/DX2                !
 ! A39   A(17,18,22)           114.201          estimate D2E/DX2                !
 ! A40   A(19,18,22)            94.9563         estimate D2E/DX2                !
 ! A41   A(18,22,23)           116.748          estimate D2E/DX2                !
 ! A42   A(18,22,27)           122.142          estimate D2E/DX2                !
 ! A43   A(23,22,27)           120.0013         estimate D2E/DX2                !
 ! A44   A(22,23,24)           120.001          estimate D2E/DX2                !
 ! A45   A(22,23,25)           119.998          estimate D2E/DX2                !
 ! A46   A(24,23,25)           120.001          estimate D2E/DX2                !
 ! A47   A(23,25,26)           120.0            estimate D2E/DX2                !
 ! A48   A(23,25,33)           125.888          estimate D2E/DX2                !
 ! A49   A(26,25,33)           114.112          estimate D2E/DX2                !
 ! A50   A(22,27,28)           109.528          estimate D2E/DX2                !
 ! A51   A(22,27,35)           109.475          estimate D2E/DX2                !
 ! A52   A(28,27,35)           125.4438         estimate D2E/DX2                !
 ! A53   A(27,28,29)           109.527          estimate D2E/DX2                !
 ! A54   A(27,28,33)           130.472          estimate D2E/DX2                !
 ! A55   A(29,28,33)           120.001          estimate D2E/DX2                !
 ! A56   A(28,29,30)           109.47           estimate D2E/DX2                !
 ! A57   A(28,29,31)           109.475          estimate D2E/DX2                !
 ! A58   A(28,29,32)           109.469          estimate D2E/DX2                !
 ! A59   A(30,29,31)           109.4748         estimate D2E/DX2                !
 ! A60   A(30,29,32)           109.4705         estimate D2E/DX2                !
 ! A61   A(31,29,32)           109.468          estimate D2E/DX2                !
 ! A62   A(25,33,28)           114.1127         estimate D2E/DX2                !
 ! A63   A(25,33,34)           125.8873         estimate D2E/DX2                !
 ! A64   A(28,33,34)           120.0            estimate D2E/DX2                !
 ! D1    D(1,2,3,4)           -179.0929         estimate D2E/DX2                !
 ! D2    D(20,2,3,4)           -59.3145         estimate D2E/DX2                !
 ! D3    D(21,2,3,4)            61.1274         estimate D2E/DX2                !
 ! D4    D(2,3,4,5)             59.9009         estimate D2E/DX2                !
 ! D5    D(2,3,4,6)            -60.507          estimate D2E/DX2                !
 ! D6    D(2,3,4,7)           -179.6023         estimate D2E/DX2                !
 ! D7    D(3,4,7,8)             54.233          estimate D2E/DX2                !
 ! D8    D(3,4,7,9)            -69.146          estimate D2E/DX2                !
 ! D9    D(3,4,7,17)           172.127          estimate D2E/DX2                !
 ! D10   D(5,4,7,8)            175.7971         estimate D2E/DX2                !
 ! D11   D(5,4,7,9)             52.4181         estimate D2E/DX2                !
 ! D12   D(5,4,7,17)           -66.3089         estimate D2E/DX2                !
 ! D13   D(6,4,7,8)            -66.791          estimate D2E/DX2                !
 ! D14   D(6,4,7,9)            169.83           estimate D2E/DX2                !
 ! D15   D(6,4,7,17)            51.103          estimate D2E/DX2                !
 ! D16   D(4,7,9,10)           134.458          estimate D2E/DX2                !
 ! D17   D(4,7,9,12)          -106.203          estimate D2E/DX2                !
 ! D18   D(4,7,9,16)            14.273          estimate D2E/DX2                !
 ! D19   D(8,7,9,10)            11.6439         estimate D2E/DX2                !
 ! D20   D(8,7,9,12)           130.9828         estimate D2E/DX2                !
 ! D21   D(8,7,9,16)          -108.5412         estimate D2E/DX2                !
 ! D22   D(17,7,9,10)         -106.1831         estimate D2E/DX2                !
 ! D23   D(17,7,9,12)           13.1559         estimate D2E/DX2                !
 ! D24   D(17,7,9,16)          133.6319         estimate D2E/DX2                !
 ! D25   D(4,7,17,18)          134.0629         estimate D2E/DX2                !
 ! D26   D(8,7,17,18)         -107.9658         estimate D2E/DX2                !
 ! D27   D(9,7,17,18)           10.6238         estimate D2E/DX2                !
 ! D28   D(7,9,10,11)           23.047          estimate D2E/DX2                !
 ! D29   D(12,9,10,11)         -92.7451         estimate D2E/DX2                !
 ! D30   D(16,9,10,11)         146.3377         estimate D2E/DX2                !
 ! D31   D(7,9,12,13)           86.018          estimate D2E/DX2                !
 ! D32   D(7,9,12,14)         -153.133          estimate D2E/DX2                !
 ! D33   D(7,9,12,18)          -29.7037         estimate D2E/DX2                !
 ! D34   D(10,9,12,13)        -151.4821         estimate D2E/DX2                !
 ! D35   D(10,9,12,14)         -30.6332         estimate D2E/DX2                !
 ! D36   D(10,9,12,18)          92.7962         estimate D2E/DX2                !
 ! D37   D(16,9,12,13)         -34.2442         estimate D2E/DX2                !
 ! D38   D(16,9,12,14)          86.6047         estimate D2E/DX2                !
 ! D39   D(16,9,12,18)        -149.9659         estimate D2E/DX2                !
 ! D40   D(9,12,14,15)          28.059          estimate D2E/DX2                !
 ! D41   D(13,12,14,15)        149.9769         estimate D2E/DX2                !
 ! D42   D(18,12,14,15)        -88.3792         estimate D2E/DX2                !
 ! D43   D(9,12,18,17)          36.9173         estimate D2E/DX2                !
 ! D44   D(9,12,18,19)         -83.3659         estimate D2E/DX2                !
 ! D45   D(9,12,18,22)         167.4247         estimate D2E/DX2                !
 ! D46   D(13,12,18,17)        -79.0485         estimate D2E/DX2                !
 ! D47   D(13,12,18,19)        160.6682         estimate D2E/DX2                !
 ! D48   D(13,12,18,22)         51.4589         estimate D2E/DX2                !
 ! D49   D(14,12,18,17)        160.189          estimate D2E/DX2                !
 ! D50   D(14,12,18,19)         39.9058         estimate D2E/DX2                !
 ! D51   D(14,12,18,22)        -69.3036         estimate D2E/DX2                !
 ! D52   D(7,17,18,12)         -30.1559         estimate D2E/DX2                !
 ! D53   D(7,17,18,19)          89.266          estimate D2E/DX2                !
 ! D54   D(7,17,18,22)        -164.446          estimate D2E/DX2                !
 ! D55   D(12,18,22,23)        103.0575         estimate D2E/DX2                !
 ! D56   D(12,18,22,27)        -88.9935         estimate D2E/DX2                !
 ! D57   D(17,18,22,23)       -130.6929         estimate D2E/DX2                !
 ! D58   D(17,18,22,27)         37.256          estimate D2E/DX2                !
 ! D59   D(19,18,22,23)        -14.2528         estimate D2E/DX2                !
 ! D60   D(19,18,22,27)        153.6962         estimate D2E/DX2                !
 ! D61   D(18,22,23,24)        -11.779          estimate D2E/DX2                !
 ! D62   D(18,22,23,25)        168.221          estimate D2E/DX2                !
 ! D63   D(27,22,23,24)        179.9998         estimate D2E/DX2                !
 ! D64   D(27,22,23,25)         -0.0002         estimate D2E/DX2                !
 ! D65   D(18,22,27,28)       -167.568          estimate D2E/DX2                !
 ! D66   D(18,22,27,35)         51.349          estimate D2E/DX2                !
 ! D67   D(23,22,27,28)         -0.0004         estimate D2E/DX2                !
 ! D68   D(23,22,27,35)       -141.0834         estimate D2E/DX2                !
 ! D69   D(22,23,25,26)       -179.9882         estimate D2E/DX2                !
 ! D70   D(22,23,25,33)         -0.0077         estimate D2E/DX2                !
 ! D71   D(24,23,25,26)          0.0118         estimate D2E/DX2                !
 ! D72   D(24,23,25,33)        179.9923         estimate D2E/DX2                !
 ! D73   D(23,25,33,28)          0.015          estimate D2E/DX2                !
 ! D74   D(23,25,33,34)        179.9972         estimate D2E/DX2                !
 ! D75   D(26,25,33,28)        179.9965         estimate D2E/DX2                !
 ! D76   D(26,25,33,34)         -0.0213         estimate D2E/DX2                !
 ! D77   D(22,27,28,29)       -180.0            estimate D2E/DX2                !
 ! D78   D(22,27,28,33)          0.0097         estimate D2E/DX2                !
 ! D79   D(35,27,28,29)        -46.6331         estimate D2E/DX2                !
 ! D80   D(35,27,28,33)        133.3766         estimate D2E/DX2                !
 ! D81   D(27,28,29,30)        -79.74           estimate D2E/DX2                !
 ! D82   D(27,28,29,31)         40.266          estimate D2E/DX2                !
 ! D83   D(27,28,29,32)        160.263          estimate D2E/DX2                !
 ! D84   D(33,28,29,30)        100.2515         estimate D2E/DX2                !
 ! D85   D(33,28,29,31)       -139.7425         estimate D2E/DX2                !
 ! D86   D(33,28,29,32)        -19.7455         estimate D2E/DX2                !
 ! D87   D(27,28,33,25)         -0.0167         estimate D2E/DX2                !
 ! D88   D(27,28,33,34)        180.0            estimate D2E/DX2                !
 ! D89   D(29,28,33,25)        179.9939         estimate D2E/DX2                !
 ! D90   D(29,28,33,34)          0.0105         estimate D2E/DX2                !
 --------------------------------------------------------------------------------
 Trust Radius=3.00D-01 FncErr=5.00D-06 GrdErr=5.00D-06 EigMax=2.50D+02 EigMin=1.00D-04
 Number of steps in this run=    200 maximum allowed number of steps=    210.
 GradGradGradGradGradGradGradGradGradGradGradGradGradGradGradGradGradGrad

 Leave Link  103 at Mon Jun 22 21:46:16 2020, MaxMem=   134217728 cpu:               0.0 elap:               0.0
 (Enter /usr/local/G16B/g16/l202.exe)
                          Input orientation:                          
 ---------------------------------------------------------------------
 Center     Atomic      Atomic             Coordinates (Angstroms)
 Number     Number       Type             X           Y           Z
 ---------------------------------------------------------------------
      1          8           0       -6.787485   -1.218491    1.343520
      2         15           0       -5.598789   -2.184932    1.233732
      3          8           0       -4.443540   -1.228241    1.221317
      4          6           0       -3.139740   -1.754901    1.107711
      5          1           0       -3.018597   -2.324532    0.175965
      6          1           0       -2.902941   -2.425101    1.943663
      7          6           0       -2.152909   -0.591760    1.128651
      8          1           0       -2.334605    0.011340    2.025866
      9          6           0       -2.199080    0.303002   -0.122870
     10          8           0       -2.197438    1.710005    0.154693
     11          1           0       -1.815596    1.881926    1.023770
     12          6           0       -0.912373   -0.078849   -0.887347
     13          1           0       -1.105386   -0.947015   -1.521165
     14          8           0       -0.409084    0.948752   -1.708685
     15          1           0       -0.687062    1.785370   -1.303544
     16          1           0       -3.093279    0.116773   -0.715158
     17          8           0       -0.811703   -1.144190    1.201095
     18          6           0        0.029627   -0.486214    0.263214
     19          1           0        0.505414    0.399297    0.698357
     20          8           0       -5.503454   -2.943460   -0.103562
     21          8           0       -5.368341   -3.070940    2.472870
     22          7           0        1.318089   -1.202054   -0.015095
     23          6           0        2.448253   -0.466580    0.050652
     24          8           0        2.382729    0.730215    0.110140
     25          7           0        3.652128   -1.077476    0.049476
     26          1           0        4.506137   -0.521763    0.099338
     27          6           0        1.409269   -2.867606   -0.097889
     28          6           0        2.703963   -3.249857   -0.085135
     29          6           0        2.784198   -4.715952   -0.158015
     30          1           0        2.596128   -5.139620    0.828604
     31          1           0        2.037745   -5.086300   -0.860892
     32          1           0        3.778270   -5.009058   -0.495827
     33          6           0        3.876024   -2.487161   -0.016780
     34          8           0        4.946246   -3.030216   -0.017872
     35          1           0        0.646982   -3.239731   -0.782560
 ---------------------------------------------------------------------
 Symmetry turned off by external request.
 Stoichiometry    C10H13N2O9P(2-)
 Framework group  C1[X(C10H13N2O9P)]
 Deg. of freedom    99
 Full point group                 C1      NOp   1
 Rotational constants (GHZ):           0.4939804           0.1136932           0.0980415
 Leave Link  202 at Mon Jun 22 21:46:16 2020, MaxMem=   134217728 cpu:               0.0 elap:               0.0
 (Enter /usr/local/G16B/g16/l301.exe)
 Standard basis: VSTO-6G (5D, 7F)
 Ernie: Thresh=  0.10000D-02 Tol=  0.10000D-05 Strict=F.
  NNHCO=     0 NNPyr=     0 NCTC=     0               EPep=         0.000000000
    EC=       914.989567282  ECS=         8.115415727   EG=         0.384906597
   EHC=         0.000000000  EAt=      -158.739399754  AtH=         5.137495340
 EPDDG=         0.000000000  ECC=       923.489889606 EAtT=       163.876895094
   101 basis functions,   606 primitive gaussians,   101 cartesian basis functions
    62 alpha electrons       62 beta electrons
       nuclear repulsion energy      1087.3667846996 Hartrees.



 Warning!  P  atom    2 may be hypervalent but has no d functions.



 IExCor=    0 DFT=F Ex=HF Corr=None ExCW=0 ScaHFX=  1.000000
 ScaDFX=  1.000000  1.000000  1.000000  1.000000 ScalE2=  1.000000  1.000000
 IRadAn=      5 IRanWt=     -1 IRanGd=            0 ICorTp=0 IEmpDi=  4
 Integral buffers will be    131072 words long.
 Regular integral format.
 Two-electron integral symmetry is turned off.
 ------------------------------------------------------------------------------
 Polarizable Continuum Model (PCM)
 =================================
 Model                : C-PCM.
 Atomic radii         : UFF (Universal Force Field).
 Polarization charges : Total charges.
 Charge compensation  : None.
 Solution method      : On-the-fly selection.
 Cavity type          : Scaled VdW (van der Waals Surface) (Alpha=1.100).
 Cavity algorithm     : GePol (No added spheres)
                        Default sphere list used, NSphG=   35.
                        Lebedev-Laikov grids with approx.  5.0 points / Ang**2.
                        Smoothing algorithm: York/Karplus (Gamma=1.0000).
                        Polarization charges: spherical gaussians, with
                                              point-specific exponents (IZeta= 3).
                        Self-potential: point-specific (ISelfS= 7).
                        Self-field    : sphere-specific E.n sum rule (ISelfD= 2).
 1st derivatives      : Analytical E(r).r(x)/FMM algorithm (CHGder, D1EAlg=3).
                        Cavity 1st derivative terms included.
 Solvent              : Water, Eps=  78.355300 Eps(inf)=   1.777849
 ------------------------------------------------------------------------------
 GePol: Number of generator spheres                  =      35
 GePol: Total number of spheres                      =      35
 GePol: Number of exposed spheres                    =      35 (100.00%)
 GePol: Number of points                             =    2833
 GePol: Average weight of points                     =       0.13
 GePol: Minimum weight of points                     =   0.15D-10
 GePol: Maximum weight of points                     =    0.20577
 GePol: Number of points with low weight             =     145
 GePol: Fraction of low-weight points (<1% of avg)   =       5.12%
 GePol: Cavity surface area                          =    367.814 Ang**2
 GePol: Cavity volume                                =    391.065 Ang**3
 Leave Link  301 at Mon Jun 22 21:46:16 2020, MaxMem=   134217728 cpu:               0.3 elap:               0.1
 (Enter /usr/local/G16B/g16/l302.exe)
 Do NDO integrals.
 NPDir=0 NMtPBC=     1 NCelOv=     1 NCel=       1 NClECP=     1 NCelD=      1
         NCelK=      1 NCelE2=     1 NClLst=     1 CellRange=     0.0.
 One-electron integrals computed using PRISM.
 NBasis=   101 RedAO= F EigKep=  0.00D+00  NBF=   101
 NBsUse=   101 1.00D-04 EigRej=  0.00D+00 NBFU=   101
 Leave Link  302 at Mon Jun 22 21:46:16 2020, MaxMem=   134217728 cpu:               0.4 elap:               0.1
 (Enter /usr/local/G16B/g16/l303.exe)
 DipDrv:  MaxL=1.
 Leave Link  303 at Mon Jun 22 21:46:16 2020, MaxMem=   134217728 cpu:               0.1 elap:               0.0
 (Enter /usr/local/G16B/g16/l401.exe)
 Simple Huckel Guess.
 JPrj=0 DoOrth=F DoCkMO=F.
 Leave Link  401 at Mon Jun 22 21:46:16 2020, MaxMem=   134217728 cpu:               0.2 elap:               0.0
 (Enter /usr/local/G16B/g16/l502.exe)
 Keep J ints in memory in canonical form, NReq=1955364.
 FoFCou: FMM=F IPFlag=           0 FMFlag=           0 FMFlg1=           0
         NFxFlg=           0 DoJE=F BraDBF=F KetDBF=F FulRan=T
         wScrn=  0.000000 ICntrl=       600 IOpCl=  2 I1Cent=           0 NGrid=           0
         NMat0=    1 NMatS0=    233 NMatT0=    0 NMatD0=    1 NMtDS0=    0 NMtDT0=    0
 Symmetry not used in FoFCou.
 Two-electron integral symmetry not used.
 Closed shell SCF:
 Using DIIS extrapolation, IDIIS=  1040.
 Overlap will be assumed to be unity.
 NGot=   134217728 LenX=   134108827 LenY=   134098185
 Requested convergence on RMS density matrix=1.00D-08 within 128 cycles.
 Requested convergence on MAX density matrix=1.00D-06.
 Requested convergence on             energy=1.00D-06.
 No special actions if energy rises.

 Cycle   1  Pass 1  IDiag  1:
 Inv3:  Mode=1 IEnd=    24077667.
 Iteration    1 A*A^-1 deviation from unit magnitude is 5.66D-15 for   2823.
 Iteration    1 A*A^-1 deviation from orthogonality  is 4.53D-15 for   2821   1986.
 Iteration    1 A^-1*A deviation from unit magnitude is 5.44D-15 for   2823.
 Iteration    1 A^-1*A deviation from orthogonality  is 2.60D-15 for   2818   2004.
 E= 0.784910278827738    
 DIIS: error= 7.44D-02 at cycle   1 NSaved=   1.
 NSaved= 1 IEnMin= 1 EnMin= 0.784910278827738     IErMin= 1 ErrMin= 7.44D-02
 ErrMax= 7.44D-02  0.00D+00 EMaxC= 1.00D-01 BMatC= 5.57D-01 BMatP= 5.57D-01
 IDIUse=3 WtCom= 2.56D-01 WtEn= 7.44D-01
 Coeff-Com:  0.100D+01
 Coeff-En:   0.100D+01
 Coeff:      0.100D+01
 GapD=    2.000 DampG=2.000 DampE=0.500 DampFc=1.0000 IDamp=-1.
 RMSDP=1.12D-02 MaxDP=1.58D-01              OVMax= 0.00D+00

 Cycle   2  Pass 1  IDiag  1:
 E=-0.659428140277669     Delta-E=       -1.444338419105 Rises=F Damp=F
 DIIS: error= 1.81D-02 at cycle   2 NSaved=   2.
 NSaved= 2 IEnMin= 2 EnMin=-0.659428140277669     IErMin= 2 ErrMin= 1.81D-02
 ErrMax= 1.81D-02  0.00D+00 EMaxC= 1.00D-01 BMatC= 3.69D-02 BMatP= 5.57D-01
 IDIUse=3 WtCom= 8.19D-01 WtEn= 1.81D-01
 Coeff-Com: -0.297D+00 0.130D+01
 Coeff-En:   0.000D+00 0.100D+01
 Coeff:     -0.243D+00 0.124D+01
 RMSDP=3.96D-03 MaxDP=6.66D-02 DE=-1.44D+00 OVMax= 0.00D+00

 Cycle   3  Pass 1  IDiag  3:
 E=-0.779995852118873     Delta-E=       -0.120567711841 Rises=F Damp=F
 DIIS: error= 3.66D-03 at cycle   3 NSaved=   3.
 NSaved= 3 IEnMin= 3 EnMin=-0.779995852118873     IErMin= 3 ErrMin= 3.66D-03
 ErrMax= 3.66D-03  0.00D+00 EMaxC= 1.00D-01 BMatC= 1.49D-03 BMatP= 3.69D-02
 IDIUse=3 WtCom= 9.63D-01 WtEn= 3.66D-02
 Coeff-Com:  0.119D+00-0.620D+00 0.150D+01
 Coeff-En:   0.000D+00 0.000D+00 0.100D+01
 Coeff:      0.115D+00-0.598D+00 0.148D+01
 Gap=     0.259 Goal=   None    Shift=    0.000
 RMSDP=1.22D-03 MaxDP=1.90D-02 DE=-1.21D-01 OVMax= 1.68D-02

 Cycle   4  Pass 1  IDiag  3:
 E=-0.787951603933607     Delta-E=       -0.007955751815 Rises=F Damp=F
 DIIS: error= 9.84D-04 at cycle   4 NSaved=   4.
 NSaved= 4 IEnMin= 4 EnMin=-0.787951603933607     IErMin= 4 ErrMin= 9.84D-04
 ErrMax= 9.84D-04  0.00D+00 EMaxC= 1.00D-01 BMatC= 8.69D-05 BMatP= 1.49D-03
 IDIUse=3 WtCom= 9.90D-01 WtEn= 9.84D-03
 Coeff-Com: -0.168D-01 0.105D+00-0.478D+00 0.139D+01
 Coeff-En:   0.000D+00 0.000D+00 0.000D+00 0.100D+01
 Coeff:     -0.167D-01 0.104D+00-0.473D+00 0.139D+01
 Gap=     0.261 Goal=   None    Shift=    0.000
 RMSDP=3.60D-04 MaxDP=5.25D-03 DE=-7.96D-03 OVMax= 7.30D-03

 Cycle   5  Pass 1  IDiag  3:
 E=-0.788490803902278     Delta-E=       -0.000539199969 Rises=F Damp=F
 DIIS: error= 1.73D-04 at cycle   5 NSaved=   5.
 NSaved= 5 IEnMin= 5 EnMin=-0.788490803902278     IErMin= 5 ErrMin= 1.73D-04
 ErrMax= 1.73D-04  0.00D+00 EMaxC= 1.00D-01 BMatC= 4.68D-06 BMatP= 8.69D-05
 IDIUse=3 WtCom= 9.98D-01 WtEn= 1.73D-03
 Coeff-Com: -0.202D-03-0.321D-02 0.729D-01-0.437D+00 0.137D+01
 Coeff-En:   0.000D+00 0.000D+00 0.000D+00 0.000D+00 0.100D+01
 Coeff:     -0.201D-03-0.320D-02 0.727D-01-0.437D+00 0.137D+01
 Gap=     0.261 Goal=   None    Shift=    0.000
 RMSDP=9.03D-05 MaxDP=1.53D-03 DE=-5.39D-04 OVMax= 2.71D-03

 Cycle   6  Pass 1  IDiag  3:
 E=-0.788523750132754     Delta-E=       -0.000032946230 Rises=F Damp=F
 DIIS: error= 7.12D-05 at cycle   6 NSaved=   6.
 NSaved= 6 IEnMin= 6 EnMin=-0.788523750132754     IErMin= 6 ErrMin= 7.12D-05
 ErrMax= 7.12D-05  0.00D+00 EMaxC= 1.00D-01 BMatC= 4.46D-07 BMatP= 4.68D-06
 IDIUse=1 WtCom= 1.00D+00 WtEn= 0.00D+00
 Coeff-Com:  0.158D-03 0.476D-03-0.236D-01 0.166D+00-0.738D+00 0.159D+01
 Coeff:      0.158D-03 0.476D-03-0.236D-01 0.166D+00-0.738D+00 0.159D+01
 Gap=     0.261 Goal=   None    Shift=    0.000
 RMSDP=3.42D-05 MaxDP=6.70D-04 DE=-3.29D-05 OVMax= 1.23D-03

 Cycle   7  Pass 1  IDiag  3:
 E=-0.788527480307948     Delta-E=       -0.000003730175 Rises=F Damp=F
 DIIS: error= 2.13D-05 at cycle   7 NSaved=   7.
 NSaved= 7 IEnMin= 7 EnMin=-0.788527480307948     IErMin= 7 ErrMin= 2.13D-05
 ErrMax= 2.13D-05  0.00D+00 EMaxC= 1.00D-01 BMatC= 3.64D-08 BMatP= 4.46D-07
 IDIUse=1 WtCom= 1.00D+00 WtEn= 0.00D+00
 Coeff-Com: -0.327D-04-0.795D-04 0.523D-02-0.394D-01 0.205D+00-0.648D+00
 Coeff-Com:  0.148D+01
 Coeff:     -0.327D-04-0.795D-04 0.523D-02-0.394D-01 0.205D+00-0.648D+00
 Coeff:      0.148D+01
 Gap=     0.261 Goal=   None    Shift=    0.000
 RMSDP=1.00D-05 MaxDP=2.19D-04 DE=-3.73D-06 OVMax= 3.78D-04

 Cycle   8  Pass 1  IDiag  3:
 E=-0.788527794894208     Delta-E=       -0.000000314586 Rises=F Damp=F
 DIIS: error= 6.32D-06 at cycle   8 NSaved=   8.
 NSaved= 8 IEnMin= 8 EnMin=-0.788527794894208     IErMin= 8 ErrMin= 6.32D-06
 ErrMax= 6.32D-06  0.00D+00 EMaxC= 1.00D-01 BMatC= 3.83D-09 BMatP= 3.64D-08
 IDIUse=1 WtCom= 1.00D+00 WtEn= 0.00D+00
 Coeff-Com: -0.814D-05 0.765D-04-0.886D-03 0.534D-02-0.272D-01 0.119D+00
 Coeff-Com: -0.553D+00 0.146D+01
 Coeff:     -0.814D-05 0.765D-04-0.886D-03 0.534D-02-0.272D-01 0.119D+00
 Coeff:     -0.553D+00 0.146D+01
 Gap=     0.261 Goal=   None    Shift=    0.000
 RMSDP=3.25D-06 MaxDP=6.33D-05 DE=-3.15D-07 OVMax= 1.13D-04

 Cycle   9  Pass 1  IDiag  3:
 E=-0.788527827520738     Delta-E=       -0.000000032627 Rises=F Damp=F
 DIIS: error= 2.13D-06 at cycle   9 NSaved=   9.
 NSaved= 9 IEnMin= 9 EnMin=-0.788527827520738     IErMin= 9 ErrMin= 2.13D-06
 ErrMax= 2.13D-06  0.00D+00 EMaxC= 1.00D-01 BMatC= 3.58D-10 BMatP= 3.83D-09
 IDIUse=1 WtCom= 1.00D+00 WtEn= 0.00D+00
 Coeff-Com:  0.312D-05-0.226D-04 0.149D-03-0.639D-03 0.236D-02-0.121D-01
 Coeff-Com:  0.973D-01-0.524D+00 0.144D+01
 Coeff:      0.312D-05-0.226D-04 0.149D-03-0.639D-03 0.236D-02-0.121D-01
 Coeff:      0.973D-01-0.524D+00 0.144D+01
 Gap=     0.261 Goal=   None    Shift=    0.000
 RMSDP=9.92D-07 MaxDP=1.68D-05 DE=-3.26D-08 OVMax= 2.95D-05

 Cycle  10  Pass 1  IDiag  3:
 E=-0.788527830507746     Delta-E=       -0.000000002987 Rises=F Damp=F
 DIIS: error= 8.49D-07 at cycle  10 NSaved=  10.
 NSaved=10 IEnMin=10 EnMin=-0.788527830507746     IErMin=10 ErrMin= 8.49D-07
 ErrMax= 8.49D-07  0.00D+00 EMaxC= 1.00D-01 BMatC= 3.11D-11 BMatP= 3.58D-10
 IDIUse=1 WtCom= 1.00D+00 WtEn= 0.00D+00
 Coeff-Com:  0.267D-06-0.547D-06-0.171D-04 0.978D-04-0.313D-03 0.969D-03
 Coeff-Com: -0.111D-01 0.103D+00-0.536D+00 0.144D+01
 Coeff:      0.267D-06-0.547D-06-0.171D-04 0.978D-04-0.313D-03 0.969D-03
 Coeff:     -0.111D-01 0.103D+00-0.536D+00 0.144D+01
 Gap=     0.261 Goal=   None    Shift=    0.000
 RMSDP=2.83D-07 MaxDP=6.52D-06 DE=-2.99D-09 OVMax= 6.15D-06

 Cycle  11  Pass 1  IDiag  3:
 E=-0.788527830761268     Delta-E=       -0.000000000254 Rises=F Damp=F
 DIIS: error= 3.44D-07 at cycle  11 NSaved=  11.
 NSaved=11 IEnMin=11 EnMin=-0.788527830761268     IErMin=11 ErrMin= 3.44D-07
 ErrMax= 3.44D-07  0.00D+00 EMaxC= 1.00D-01 BMatC= 2.99D-12 BMatP= 3.11D-11
 IDIUse=1 WtCom= 1.00D+00 WtEn= 0.00D+00
 Coeff-Com: -0.116D-07-0.160D-07 0.371D-05-0.160D-04 0.270D-04-0.977D-04
 Coeff-Com:  0.210D-02-0.221D-01 0.148D+00-0.643D+00 0.151D+01
 Coeff:     -0.116D-07-0.160D-07 0.371D-05-0.160D-04 0.270D-04-0.977D-04
 Coeff:      0.210D-02-0.221D-01 0.148D+00-0.643D+00 0.151D+01
 Gap=     0.261 Goal=   None    Shift=    0.000
 RMSDP=9.05D-08 MaxDP=2.70D-06 DE=-2.54D-10 OVMax= 1.91D-06

 Cycle  12  Pass 1  IDiag  3:
 E=-0.788527830787416     Delta-E=       -0.000000000026 Rises=F Damp=F
 DIIS: error= 1.36D-07 at cycle  12 NSaved=  12.
 NSaved=12 IEnMin=12 EnMin=-0.788527830787416     IErMin=12 ErrMin= 1.36D-07
 ErrMax= 1.36D-07  0.00D+00 EMaxC= 1.00D-01 BMatC= 3.54D-13 BMatP= 2.99D-12
 IDIUse=1 WtCom= 1.00D+00 WtEn= 0.00D+00
 Coeff-Com:  0.323D-07-0.154D-06-0.123D-06-0.394D-06 0.145D-04-0.627D-05
 Coeff-Com: -0.647D-03 0.661D-02-0.450D-01 0.234D+00-0.835D+00 0.164D+01
 Coeff:      0.323D-07-0.154D-06-0.123D-06-0.394D-06 0.145D-04-0.627D-05
 Coeff:     -0.647D-03 0.661D-02-0.450D-01 0.234D+00-0.835D+00 0.164D+01
 Gap=     0.261 Goal=   None    Shift=    0.000
 RMSDP=3.56D-08 MaxDP=1.21D-06 DE=-2.61D-11 OVMax= 8.34D-07

 Cycle  13  Pass 1  IDiag  3:
 E=-0.788527830795829     Delta-E=       -0.000000000008 Rises=F Damp=F
 DIIS: error= 4.61D-08 at cycle  13 NSaved=  13.
 NSaved=13 IEnMin=13 EnMin=-0.788527830795829     IErMin=13 ErrMin= 4.61D-08
 ErrMax= 4.61D-08  0.00D+00 EMaxC= 1.00D-01 BMatC= 4.11D-14 BMatP= 3.54D-13
 IDIUse=1 WtCom= 1.00D+00 WtEn= 0.00D+00
 Coeff-Com: -0.250D-07 0.962D-07 0.841D-07-0.757D-06-0.213D-05 0.234D-05
 Coeff-Com:  0.133D-03-0.141D-02 0.941D-02-0.533D-01 0.250D+00-0.789D+00
 Coeff-Com:  0.158D+01
 Coeff:     -0.250D-07 0.962D-07 0.841D-07-0.757D-06-0.213D-05 0.234D-05
 Coeff:      0.133D-03-0.141D-02 0.941D-02-0.533D-01 0.250D+00-0.789D+00
 Coeff:      0.158D+01
 Gap=     0.261 Goal=   None    Shift=    0.000
 RMSDP=1.26D-08 MaxDP=4.43D-07 DE=-8.41D-12 OVMax= 2.97D-07

 Cycle  14  Pass 1  IDiag  3:
 E=-0.788527830794237     Delta-E=        0.000000000002 Rises=F Damp=F
 DIIS: error= 1.39D-08 at cycle  14 NSaved=  14.
 NSaved=14 IEnMin=13 EnMin=-0.788527830795829     IErMin=14 ErrMin= 1.39D-08
 ErrMax= 1.39D-08  0.00D+00 EMaxC= 1.00D-01 BMatC= 4.61D-15 BMatP= 4.11D-14
 IDIUse=1 WtCom= 1.00D+00 WtEn= 0.00D+00
 Coeff-Com: -0.422D-08 0.320D-07-0.213D-06 0.914D-06-0.229D-05 0.396D-05
 Coeff-Com: -0.147D-04 0.144D-03-0.106D-02 0.559D-02-0.335D-01 0.163D+00
 Coeff-Com: -0.652D+00 0.152D+01
 Coeff:     -0.422D-08 0.320D-07-0.213D-06 0.914D-06-0.229D-05 0.396D-05
 Coeff:     -0.147D-04 0.144D-03-0.106D-02 0.559D-02-0.335D-01 0.163D+00
 Coeff:     -0.652D+00 0.152D+01
 Gap=     0.261 Goal=   None    Shift=    0.000
 RMSDP=4.25D-09 MaxDP=1.46D-07 DE= 1.59D-12 OVMax= 9.76D-08

 Cycle  15  Pass 2  IDiag  1:
 Error on total polarization charges =  0.00007
 SCF Done:  E(RPM3) = -0.788527830794     A.U. after   15 cycles
            NFock= 14  Conv=0.42D-08     -V/T= 0.9971
 KE=-2.703464564554D+02 PE=-1.843686510094D+03 EE= 1.025877654019D+03
 Leave Link  502 at Mon Jun 22 21:46:24 2020, MaxMem=   134217728 cpu:              29.4 elap:               7.4
 (Enter /usr/local/G16B/g16/l601.exe)
 Copying SCF densities to generalized density rwf, IOpCl= 0 IROHF=0.

 **********************************************************************

            Population analysis using the SCF Density.

 **********************************************************************

 Alpha  occ. eigenvalues --   -1.56832  -1.49196  -1.41054  -1.38233  -1.33180
 Alpha  occ. eigenvalues --   -1.32256  -1.30083  -1.17248  -1.16215  -1.13777
 Alpha  occ. eigenvalues --   -1.13171  -1.12050  -1.09800  -1.00897  -0.94251
 Alpha  occ. eigenvalues --   -0.88651  -0.85961  -0.80454  -0.78300  -0.75934
 Alpha  occ. eigenvalues --   -0.70648  -0.70026  -0.68726  -0.66389  -0.66096
 Alpha  occ. eigenvalues --   -0.63693  -0.62044  -0.60581  -0.60337  -0.59654
 Alpha  occ. eigenvalues --   -0.58528  -0.57767  -0.56730  -0.56034  -0.55502
 Alpha  occ. eigenvalues --   -0.54606  -0.54022  -0.52166  -0.51993  -0.51377
 Alpha  occ. eigenvalues --   -0.50009  -0.48484  -0.47916  -0.45593  -0.44452
 Alpha  occ. eigenvalues --   -0.44013  -0.43463  -0.42440  -0.41992  -0.41517
 Alpha  occ. eigenvalues --   -0.40707  -0.39644  -0.39201  -0.38269  -0.35703
 Alpha  occ. eigenvalues --   -0.35145  -0.32571  -0.31170  -0.30969  -0.30786
 Alpha  occ. eigenvalues --   -0.29672  -0.29624
 Alpha virt. eigenvalues --   -0.03512   0.01057   0.03281   0.03493   0.06998
 Alpha virt. eigenvalues --    0.08303   0.09103   0.09686   0.10730   0.10984
 Alpha virt. eigenvalues --    0.12014   0.12201   0.12920   0.13557   0.13820
 Alpha virt. eigenvalues --    0.14316   0.14769   0.14793   0.15060   0.15365
 Alpha virt. eigenvalues --    0.16037   0.16128   0.16312   0.16853   0.16954
 Alpha virt. eigenvalues --    0.17340   0.17972   0.18159   0.18353   0.19104
 Alpha virt. eigenvalues --    0.19802   0.20537   0.22283   0.22902   0.24588
 Alpha virt. eigenvalues --    0.25165   0.26728   0.28969   0.29778
          Condensed to atoms (all electrons):
               1          2          3          4          5          6
     1  O    7.119049   0.000000   0.000000   0.000000   0.000000   0.000000
     2  P    0.000000   3.036645   0.000000   0.000000   0.000000   0.000000
     3  O    0.000000   0.000000   6.624731   0.000000   0.000000   0.000000
     4  C    0.000000   0.000000   0.000000   3.891920   0.000000   0.000000
     5  H    0.000000   0.000000   0.000000   0.000000   0.968029   0.000000
     6  H    0.000000   0.000000   0.000000   0.000000   0.000000   0.966018
     7  C    0.000000   0.000000   0.000000   0.000000   0.000000   0.000000
     8  H    0.000000   0.000000   0.000000   0.000000   0.000000   0.000000
     9  C    0.000000   0.000000   0.000000   0.000000   0.000000   0.000000
    10  O    0.000000   0.000000   0.000000   0.000000   0.000000   0.000000
    11  H    0.000000   0.000000   0.000000   0.000000   0.000000   0.000000
    12  C    0.000000   0.000000   0.000000   0.000000   0.000000   0.000000
    13  H    0.000000   0.000000   0.000000   0.000000   0.000000   0.000000
    14  O    0.000000   0.000000   0.000000   0.000000   0.000000   0.000000
    15  H    0.000000   0.000000   0.000000   0.000000   0.000000   0.000000
    16  H    0.000000   0.000000   0.000000   0.000000   0.000000   0.000000
    17  O    0.000000   0.000000   0.000000   0.000000   0.000000   0.000000
    18  C    0.000000   0.000000   0.000000   0.000000   0.000000   0.000000
    19  H    0.000000   0.000000   0.000000   0.000000   0.000000   0.000000
    20  O    0.000000   0.000000   0.000000   0.000000   0.000000   0.000000
    21  O    0.000000   0.000000   0.000000   0.000000   0.000000   0.000000
    22  N    0.000000   0.000000   0.000000   0.000000   0.000000   0.000000
    23  C    0.000000   0.000000   0.000000   0.000000   0.000000   0.000000
    24  O    0.000000   0.000000   0.000000   0.000000   0.000000   0.000000
    25  N    0.000000   0.000000   0.000000   0.000000   0.000000   0.000000
    26  H    0.000000   0.000000   0.000000   0.000000   0.000000   0.000000
    27  C    0.000000   0.000000   0.000000   0.000000   0.000000   0.000000
    28  C    0.000000   0.000000   0.000000   0.000000   0.000000   0.000000
    29  C    0.000000   0.000000   0.000000   0.000000   0.000000   0.000000
    30  H    0.000000   0.000000   0.000000   0.000000   0.000000   0.000000
    31  H    0.000000   0.000000   0.000000   0.000000   0.000000   0.000000
    32  H    0.000000   0.000000   0.000000   0.000000   0.000000   0.000000
    33  C    0.000000   0.000000   0.000000   0.000000   0.000000   0.000000
    34  O    0.000000   0.000000   0.000000   0.000000   0.000000   0.000000
    35  H    0.000000   0.000000   0.000000   0.000000   0.000000   0.000000
               7          8          9         10         11         12
     1  O    0.000000   0.000000   0.000000   0.000000   0.000000   0.000000
     2  P    0.000000   0.000000   0.000000   0.000000   0.000000   0.000000
     3  O    0.000000   0.000000   0.000000   0.000000   0.000000   0.000000
     4  C    0.000000   0.000000   0.000000   0.000000   0.000000   0.000000
     5  H    0.000000   0.000000   0.000000   0.000000   0.000000   0.000000
     6  H    0.000000   0.000000   0.000000   0.000000   0.000000   0.000000
     7  C    3.981072   0.000000   0.000000   0.000000   0.000000   0.000000
     8  H    0.000000   0.923597   0.000000   0.000000   0.000000   0.000000
     9  C    0.000000   0.000000   3.980791   0.000000   0.000000   0.000000
    10  O    0.000000   0.000000   0.000000   6.334866   0.000000   0.000000
    11  H    0.000000   0.000000   0.000000   0.000000   0.782177   0.000000
    12  C    0.000000   0.000000   0.000000   0.000000   0.000000   3.975323
    13  H    0.000000   0.000000   0.000000   0.000000   0.000000   0.000000
    14  O    0.000000   0.000000   0.000000   0.000000   0.000000   0.000000
    15  H    0.000000   0.000000   0.000000   0.000000   0.000000   0.000000
    16  H    0.000000   0.000000   0.000000   0.000000   0.000000   0.000000
    17  O    0.000000   0.000000   0.000000   0.000000   0.000000   0.000000
    18  C    0.000000   0.000000   0.000000   0.000000   0.000000   0.000000
    19  H    0.000000   0.000000   0.000000   0.000000   0.000000   0.000000
    20  O    0.000000   0.000000   0.000000   0.000000   0.000000   0.000000
    21  O    0.000000   0.000000   0.000000   0.000000   0.000000   0.000000
    22  N    0.000000   0.000000   0.000000   0.000000   0.000000   0.000000
    23  C    0.000000   0.000000   0.000000   0.000000   0.000000   0.000000
    24  O    0.000000   0.000000   0.000000   0.000000   0.000000   0.000000
    25  N    0.000000   0.000000   0.000000   0.000000   0.000000   0.000000
    26  H    0.000000   0.000000   0.000000   0.000000   0.000000   0.000000
    27  C    0.000000   0.000000   0.000000   0.000000   0.000000   0.000000
    28  C    0.000000   0.000000   0.000000   0.000000   0.000000   0.000000
    29  C    0.000000   0.000000   0.000000   0.000000   0.000000   0.000000
    30  H    0.000000   0.000000   0.000000   0.000000   0.000000   0.000000
    31  H    0.000000   0.000000   0.000000   0.000000   0.000000   0.000000
    32  H    0.000000   0.000000   0.000000   0.000000   0.000000   0.000000
    33  C    0.000000   0.000000   0.000000   0.000000   0.000000   0.000000
    34  O    0.000000   0.000000   0.000000   0.000000   0.000000   0.000000
    35  H    0.000000   0.000000   0.000000   0.000000   0.000000   0.000000
              13         14         15         16         17         18
     1  O    0.000000   0.000000   0.000000   0.000000   0.000000   0.000000
     2  P    0.000000   0.000000   0.000000   0.000000   0.000000   0.000000
     3  O    0.000000   0.000000   0.000000   0.000000   0.000000   0.000000
     4  C    0.000000   0.000000   0.000000   0.000000   0.000000   0.000000
     5  H    0.000000   0.000000   0.000000   0.000000   0.000000   0.000000
     6  H    0.000000   0.000000   0.000000   0.000000   0.000000   0.000000
     7  C    0.000000   0.000000   0.000000   0.000000   0.000000   0.000000
     8  H    0.000000   0.000000   0.000000   0.000000   0.000000   0.000000
     9  C    0.000000   0.000000   0.000000   0.000000   0.000000   0.000000
    10  O    0.000000   0.000000   0.000000   0.000000   0.000000   0.000000
    11  H    0.000000   0.000000   0.000000   0.000000   0.000000   0.000000
    12  C    0.000000   0.000000   0.000000   0.000000   0.000000   0.000000
    13  H    0.911435   0.000000   0.000000   0.000000   0.000000   0.000000
    14  O    0.000000   6.316709   0.000000   0.000000   0.000000   0.000000
    15  H    0.000000   0.000000   0.781434   0.000000   0.000000   0.000000
    16  H    0.000000   0.000000   0.000000   0.895721   0.000000   0.000000
    17  O    0.000000   0.000000   0.000000   0.000000   6.270896   0.000000
    18  C    0.000000   0.000000   0.000000   0.000000   0.000000   3.943993
    19  H    0.000000   0.000000   0.000000   0.000000   0.000000   0.000000
    20  O    0.000000   0.000000   0.000000   0.000000   0.000000   0.000000
    21  O    0.000000   0.000000   0.000000   0.000000   0.000000   0.000000
    22  N    0.000000   0.000000   0.000000   0.000000   0.000000   0.000000
    23  C    0.000000   0.000000   0.000000   0.000000   0.000000   0.000000
    24  O    0.000000   0.000000   0.000000   0.000000   0.000000   0.000000
    25  N    0.000000   0.000000   0.000000   0.000000   0.000000   0.000000
    26  H    0.000000   0.000000   0.000000   0.000000   0.000000   0.000000
    27  C    0.000000   0.000000   0.000000   0.000000   0.000000   0.000000
    28  C    0.000000   0.000000   0.000000   0.000000   0.000000   0.000000
    29  C    0.000000   0.000000   0.000000   0.000000   0.000000   0.000000
    30  H    0.000000   0.000000   0.000000   0.000000   0.000000   0.000000
    31  H    0.000000   0.000000   0.000000   0.000000   0.000000   0.000000
    32  H    0.000000   0.000000   0.000000   0.000000   0.000000   0.000000
    33  C    0.000000   0.000000   0.000000   0.000000   0.000000   0.000000
    34  O    0.000000   0.000000   0.000000   0.000000   0.000000   0.000000
    35  H    0.000000   0.000000   0.000000   0.000000   0.000000   0.000000
              19         20         21         22         23         24
     1  O    0.000000   0.000000   0.000000   0.000000   0.000000   0.000000
     2  P    0.000000   0.000000   0.000000   0.000000   0.000000   0.000000
     3  O    0.000000   0.000000   0.000000   0.000000   0.000000   0.000000
     4  C    0.000000   0.000000   0.000000   0.000000   0.000000   0.000000
     5  H    0.000000   0.000000   0.000000   0.000000   0.000000   0.000000
     6  H    0.000000   0.000000   0.000000   0.000000   0.000000   0.000000
     7  C    0.000000   0.000000   0.000000   0.000000   0.000000   0.000000
     8  H    0.000000   0.000000   0.000000   0.000000   0.000000   0.000000
     9  C    0.000000   0.000000   0.000000   0.000000   0.000000   0.000000
    10  O    0.000000   0.000000   0.000000   0.000000   0.000000   0.000000
    11  H    0.000000   0.000000   0.000000   0.000000   0.000000   0.000000
    12  C    0.000000   0.000000   0.000000   0.000000   0.000000   0.000000
    13  H    0.000000   0.000000   0.000000   0.000000   0.000000   0.000000
    14  O    0.000000   0.000000   0.000000   0.000000   0.000000   0.000000
    15  H    0.000000   0.000000   0.000000   0.000000   0.000000   0.000000
    16  H    0.000000   0.000000   0.000000   0.000000   0.000000   0.000000
    17  O    0.000000   0.000000   0.000000   0.000000   0.000000   0.000000
    18  C    0.000000   0.000000   0.000000   0.000000   0.000000   0.000000
    19  H    0.911748   0.000000   0.000000   0.000000   0.000000   0.000000
    20  O    0.000000   7.151369   0.000000   0.000000   0.000000   0.000000
    21  O    0.000000   0.000000   7.150575   0.000000   0.000000   0.000000
    22  N    0.000000   0.000000   0.000000   5.064869   0.000000   0.000000
    23  C    0.000000   0.000000   0.000000   0.000000   3.721560   0.000000
    24  O    0.000000   0.000000   0.000000   0.000000   0.000000   6.493836
    25  N    0.000000   0.000000   0.000000   0.000000   0.000000   0.000000
    26  H    0.000000   0.000000   0.000000   0.000000   0.000000   0.000000
    27  C    0.000000   0.000000   0.000000   0.000000   0.000000   0.000000
    28  C    0.000000   0.000000   0.000000   0.000000   0.000000   0.000000
    29  C    0.000000   0.000000   0.000000   0.000000   0.000000   0.000000
    30  H    0.000000   0.000000   0.000000   0.000000   0.000000   0.000000
    31  H    0.000000   0.000000   0.000000   0.000000   0.000000   0.000000
    32  H    0.000000   0.000000   0.000000   0.000000   0.000000   0.000000
    33  C    0.000000   0.000000   0.000000   0.000000   0.000000   0.000000
    34  O    0.000000   0.000000   0.000000   0.000000   0.000000   0.000000
    35  H    0.000000   0.000000   0.000000   0.000000   0.000000   0.000000
              25         26         27         28         29         30
     1  O    0.000000   0.000000   0.000000   0.000000   0.000000   0.000000
     2  P    0.000000   0.000000   0.000000   0.000000   0.000000   0.000000
     3  O    0.000000   0.000000   0.000000   0.000000   0.000000   0.000000
     4  C    0.000000   0.000000   0.000000   0.000000   0.000000   0.000000
     5  H    0.000000   0.000000   0.000000   0.000000   0.000000   0.000000
     6  H    0.000000   0.000000   0.000000   0.000000   0.000000   0.000000
     7  C    0.000000   0.000000   0.000000   0.000000   0.000000   0.000000
     8  H    0.000000   0.000000   0.000000   0.000000   0.000000   0.000000
     9  C    0.000000   0.000000   0.000000   0.000000   0.000000   0.000000
    10  O    0.000000   0.000000   0.000000   0.000000   0.000000   0.000000
    11  H    0.000000   0.000000   0.000000   0.000000   0.000000   0.000000
    12  C    0.000000   0.000000   0.000000   0.000000   0.000000   0.000000
    13  H    0.000000   0.000000   0.000000   0.000000   0.000000   0.000000
    14  O    0.000000   0.000000   0.000000   0.000000   0.000000   0.000000
    15  H    0.000000   0.000000   0.000000   0.000000   0.000000   0.000000
    16  H    0.000000   0.000000   0.000000   0.000000   0.000000   0.000000
    17  O    0.000000   0.000000   0.000000   0.000000   0.000000   0.000000
    18  C    0.000000   0.000000   0.000000   0.000000   0.000000   0.000000
    19  H    0.000000   0.000000   0.000000   0.000000   0.000000   0.000000
    20  O    0.000000   0.000000   0.000000   0.000000   0.000000   0.000000
    21  O    0.000000   0.000000   0.000000   0.000000   0.000000   0.000000
    22  N    0.000000   0.000000   0.000000   0.000000   0.000000   0.000000
    23  C    0.000000   0.000000   0.000000   0.000000   0.000000   0.000000
    24  O    0.000000   0.000000   0.000000   0.000000   0.000000   0.000000
    25  N    4.972958   0.000000   0.000000   0.000000   0.000000   0.000000
    26  H    0.000000   0.886019   0.000000   0.000000   0.000000   0.000000
    27  C    0.000000   0.000000   3.954830   0.000000   0.000000   0.000000
    28  C    0.000000   0.000000   0.000000   4.233627   0.000000   0.000000
    29  C    0.000000   0.000000   0.000000   0.000000   4.078362   0.000000
    30  H    0.000000   0.000000   0.000000   0.000000   0.000000   0.935818
    31  H    0.000000   0.000000   0.000000   0.000000   0.000000   0.000000
    32  H    0.000000   0.000000   0.000000   0.000000   0.000000   0.000000
    33  C    0.000000   0.000000   0.000000   0.000000   0.000000   0.000000
    34  O    0.000000   0.000000   0.000000   0.000000   0.000000   0.000000
    35  H    0.000000   0.000000   0.000000   0.000000   0.000000   0.000000
              31         32         33         34         35
     1  O    0.000000   0.000000   0.000000   0.000000   0.000000
     2  P    0.000000   0.000000   0.000000   0.000000   0.000000
     3  O    0.000000   0.000000   0.000000   0.000000   0.000000
     4  C    0.000000   0.000000   0.000000   0.000000   0.000000
     5  H    0.000000   0.000000   0.000000   0.000000   0.000000
     6  H    0.000000   0.000000   0.000000   0.000000   0.000000
     7  C    0.000000   0.000000   0.000000   0.000000   0.000000
     8  H    0.000000   0.000000   0.000000   0.000000   0.000000
     9  C    0.000000   0.000000   0.000000   0.000000   0.000000
    10  O    0.000000   0.000000   0.000000   0.000000   0.000000
    11  H    0.000000   0.000000   0.000000   0.000000   0.000000
    12  C    0.000000   0.000000   0.000000   0.000000   0.000000
    13  H    0.000000   0.000000   0.000000   0.000000   0.000000
    14  O    0.000000   0.000000   0.000000   0.000000   0.000000
    15  H    0.000000   0.000000   0.000000   0.000000   0.000000
    16  H    0.000000   0.000000   0.000000   0.000000   0.000000
    17  O    0.000000   0.000000   0.000000   0.000000   0.000000
    18  C    0.000000   0.000000   0.000000   0.000000   0.000000
    19  H    0.000000   0.000000   0.000000   0.000000   0.000000
    20  O    0.000000   0.000000   0.000000   0.000000   0.000000
    21  O    0.000000   0.000000   0.000000   0.000000   0.000000
    22  N    0.000000   0.000000   0.000000   0.000000   0.000000
    23  C    0.000000   0.000000   0.000000   0.000000   0.000000
    24  O    0.000000   0.000000   0.000000   0.000000   0.000000
    25  N    0.000000   0.000000   0.000000   0.000000   0.000000
    26  H    0.000000   0.000000   0.000000   0.000000   0.000000
    27  C    0.000000   0.000000   0.000000   0.000000   0.000000
    28  C    0.000000   0.000000   0.000000   0.000000   0.000000
    29  C    0.000000   0.000000   0.000000   0.000000   0.000000
    30  H    0.000000   0.000000   0.000000   0.000000   0.000000
    31  H    0.940926   0.000000   0.000000   0.000000   0.000000
    32  H    0.000000   0.937147   0.000000   0.000000   0.000000
    33  C    0.000000   0.000000   3.646425   0.000000   0.000000
    34  O    0.000000   0.000000   0.000000   6.383004   0.000000
    35  H    0.000000   0.000000   0.000000   0.000000   0.832520
 Mulliken charges:
               1
     1  O   -1.119049
     2  P    1.963355
     3  O   -0.624731
     4  C    0.108080
     5  H    0.031971
     6  H    0.033982
     7  C    0.018928
     8  H    0.076403
     9  C    0.019209
    10  O   -0.334866
    11  H    0.217823
    12  C    0.024677
    13  H    0.088565
    14  O   -0.316709
    15  H    0.218566
    16  H    0.104279
    17  O   -0.270896
    18  C    0.056007
    19  H    0.088252
    20  O   -1.151369
    21  O   -1.150575
    22  N   -0.064869
    23  C    0.278440
    24  O   -0.493836
    25  N    0.027042
    26  H    0.113981
    27  C    0.045170
    28  C   -0.233627
    29  C   -0.078362
    30  H    0.064182
    31  H    0.059074
    32  H    0.062853
    33  C    0.353575
    34  O   -0.383004
    35  H    0.167480
 Sum of Mulliken charges =  -2.00000
 Mulliken charges with hydrogens summed into heavy atoms:
               1
     1  O   -1.119049
     2  P    1.963355
     3  O   -0.624731
     4  C    0.174034
     7  C    0.095330
     9  C    0.123488
    10  O   -0.117043
    12  C    0.113241
    14  O   -0.098143
    17  O   -0.270896
    18  C    0.144259
    20  O   -1.151369
    21  O   -1.150575
    22  N   -0.064869
    23  C    0.278440
    24  O   -0.493836
    25  N    0.141023
    27  C    0.212651
    28  C   -0.233627
    29  C    0.107747
    33  C    0.353575
    34  O   -0.383004
 Charge=             -2.0000 electrons
 Dipole moment (field-independent basis, Debye):
    X=             51.3904    Y=             19.1390    Z=            -10.6850  Tot=             55.8699
 N-N= 1.087366784700D+03 E-N=-1.843686510012D+03  KE=-2.703464564554D+02
 Leave Link  601 at Mon Jun 22 21:46:24 2020, MaxMem=   134217728 cpu:               0.1 elap:               0.0
 (Enter /usr/local/G16B/g16/l701.exe)
 ... and contract with generalized density number  0.
 Compute integral first derivatives.
 D1PCM: C-PCM CHGder 1st derivatives, ID1Alg=3 FixD1E=F DoIter=F DoCFld=F I1PDM=0.
 GePol: Maximum number of non-zero 1st derivatives   =     217
 Leave Link  701 at Mon Jun 22 21:46:24 2020, MaxMem=   134217728 cpu:               1.3 elap:               0.3
 (Enter /usr/local/G16B/g16/l702.exe)
 L702 exits ... SP integral derivatives will be done elsewhere.
 Leave Link  702 at Mon Jun 22 21:46:24 2020, MaxMem=   134217728 cpu:               0.1 elap:               0.0
 (Enter /usr/local/G16B/g16/l703.exe)
 Integral derivatives from FoFJK, PRISM(SPDF).
 Compute integral first derivatives, UseDBF=F ICtDFT=           0.
 Calling FoFJK, ICntrl=      2127 FMM=F ISym2X=0 I1Cent= 0 IOpClX= 0 NMat=1 NMatS=1 NMatT=0.
 FoFJK:  IHMeth= 9 ICntrl=    2127 DoSepK=F KAlg= 0 I1Cent=           0 FoldK=F
 IRaf=         0 NMat=       1 IRICut=       1 DoRegI=T DoRafI=F ISym2E= 0 IDoP0=3 IntGTp=3.
 FoFCou: FMM=F IPFlag=           0 FMFlag=      100000 FMFlg1=         800
         NFxFlg=           0 DoJE=F BraDBF=F KetDBF=F FulRan=T
         wScrn=  0.000000 ICntrl=      2127 IOpCl=  0 I1Cent=           0 NGrid=           0
         NMat0=    1 NMatS0=      1 NMatT0=    0 NMatD0=    1 NMtDS0=    0 NMtDT0=    0
 Symmetry not used in FoFCou.
 Leave Link  703 at Mon Jun 22 21:46:24 2020, MaxMem=   134217728 cpu:               0.2 elap:               0.0
 (Enter /usr/local/G16B/g16/l716.exe)
 Dipole        = 2.02185269D+01 7.52987939D+00-4.20378515D+00
 -------------------------------------------------------------------
 Center     Atomic                   Forces (Hartrees/Bohr)
 Number     Number              X              Y              Z
 -------------------------------------------------------------------
      1        8          -0.021543445    0.017542017    0.002224253
      2       15          -0.100729421   -0.088299534    0.001317737
      3        8           0.128914072    0.092876197   -0.001699884
      4        6          -0.005732684    0.010184362   -0.002542686
      5        1          -0.001302897   -0.003697267   -0.005137637
      6        1          -0.001212530   -0.004989462    0.005539363
      7        6           0.015428583    0.001931681   -0.007466920
      8        1           0.003479751    0.005746699    0.012983027
      9        6           0.007145844    0.018025564    0.011465355
     10        8          -0.001276492   -0.010012722    0.004238652
     11        1          -0.004009534   -0.007911880   -0.013875672
     12        6           0.007663210    0.008150029   -0.007796626
     13        1          -0.000394820   -0.006764808   -0.013936104
     14        8          -0.006244647    0.005614710    0.007536240
     15        1           0.004767258   -0.013950608   -0.004981367
     16        1          -0.012387373    0.003229888   -0.007906162
     17        8           0.005456528   -0.008137088    0.011369237
     18        6           0.008281591    0.000301842    0.000183024
     19        1          -0.005118682    0.023393471    0.013849378
     20        8          -0.005995696   -0.017269205   -0.025008170
     21        8          -0.003194751   -0.019438700    0.023113236
     22        7          -0.079432174   -0.127728057   -0.007845675
     23        6          -0.004294203   -0.021463371    0.001422893
     24        8           0.001622525    0.085248223    0.005562260
     25        7           0.105258891   -0.022702929   -0.000174128
     26        1          -0.014237967   -0.002684872   -0.001227697
     27        6           0.019688743    0.140566184   -0.031230999
     28        6          -0.091114976   -0.053769745    0.007419194
     29        6           0.013620517   -0.015386307   -0.006084677
     30        1           0.000405235   -0.004948171    0.003764667
     31        1          -0.001616188   -0.008677433   -0.002944138
     32        1           0.002228594   -0.009881833   -0.001852480
     33        6          -0.014434798    0.042735745    0.010396112
     34        8           0.065348760    0.002973740    0.000855744
     35        1          -0.015036824   -0.010806361    0.018470646
 -------------------------------------------------------------------
 Cartesian Forces:  Max     0.140566184 RMS     0.035459633
 Leave Link  716 at Mon Jun 22 21:46:24 2020, MaxMem=   134217728 cpu:               0.1 elap:               0.0
 (Enter /usr/local/G16B/g16/l103.exe)

 GradGradGradGradGradGradGradGradGradGradGradGradGradGradGradGradGradGrad
 Berny optimization.
 FormGI is forming the generalized inverse of G from B-inverse, IUseBI=4.
 Internal  Forces:  Max     0.169789367 RMS     0.021038341
 Search for a local minimum.
 Step number   1 out of a maximum of  200
 All quantities printed in internal units (Hartrees-Bohrs-Radians)
 RMS Force = .21038D-01 SwitMx=.10000D-02 MixMth= 1
 Mixed Optimization -- RFO/linear search
 Second derivative matrix not updated -- first step.
 ITU=  0
     Eigenvalues ---    0.00360   0.00369   0.00429   0.00812   0.00953
     Eigenvalues ---    0.01162   0.01167   0.01240   0.01550   0.01579
     Eigenvalues ---    0.01614   0.01860   0.01911   0.02077   0.02353
     Eigenvalues ---    0.02409   0.02684   0.03158   0.03513   0.04217
     Eigenvalues ---    0.04300   0.04736   0.04993   0.05136   0.05361
     Eigenvalues ---    0.05380   0.05850   0.06093   0.06218   0.06329
     Eigenvalues ---    0.07686   0.07756   0.07757   0.08450   0.10189
     Eigenvalues ---    0.11052   0.11846   0.13568   0.13655   0.16000
     Eigenvalues ---    0.16000   0.16000   0.16000   0.16000   0.16000
     Eigenvalues ---    0.16387   0.17676   0.18294   0.18664   0.18676
     Eigenvalues ---    0.19771   0.20860   0.21988   0.23105   0.24106
     Eigenvalues ---    0.24452   0.24889   0.25000   0.25000   0.25000
     Eigenvalues ---    0.25000   0.25000   0.25000   0.25000   0.26119
     Eigenvalues ---    0.27229   0.28111   0.29842   0.32377   0.33818
     Eigenvalues ---    0.33983   0.34102   0.34198   0.34571   0.34797
     Eigenvalues ---    0.34800   0.34803   0.34807   0.34973   0.35729
     Eigenvalues ---    0.36286   0.39955   0.40084   0.40403   0.43887
     Eigenvalues ---    0.44037   0.44241   0.44320   0.51360   0.53331
     Eigenvalues ---    0.54111   0.54474   0.55021   0.64651   0.64717
     Eigenvalues ---    0.65912   0.76675   1.04763   1.04792
 RFO step:  Lambda=-1.40185159D-01 EMin= 3.60221816D-03
 Linear search not attempted -- first point.
 Maximum step size (   0.300) exceeded in Quadratic search.
    -- Step size scaled by   0.599
 Iteration  1 RMS(Cart)=  0.08707890 RMS(Int)=  0.00146965
 Iteration  2 RMS(Cart)=  0.00375801 RMS(Int)=  0.00023688
 Iteration  3 RMS(Cart)=  0.00000421 RMS(Int)=  0.00023687
 Iteration  4 RMS(Cart)=  0.00000000 RMS(Int)=  0.00023687
 ITry= 1 IFail=0 DXMaxC= 3.51D-01 DCOld= 1.00D+10 DXMaxT= 3.00D-01 DXLimC= 3.00D+00 Rises=F
 Variable       Old X    -DE/DX   Delta X   Delta X   Delta X     New X
                                 (Linear)    (Quad)   (Total)
    R1        2.90247   0.02787   0.00000   0.02088   0.02088   2.92335
    R2        2.83460   0.16979   0.00000   0.11210   0.11210   2.94669
    R3        2.91092   0.02983   0.00000   0.02269   0.02269   2.93361
    R4        2.91139   0.02930   0.00000   0.02230   0.02230   2.93369
    R5        2.66590  -0.00309   0.00000  -0.00320  -0.00320   2.66270
    R6        2.07638   0.00612   0.00000   0.00766   0.00766   2.08405
    R7        2.07359   0.00701   0.00000   0.00874   0.00874   2.08233
    R8        2.88279   0.01697   0.00000   0.02316   0.02316   2.90595
    R9        2.07159   0.01321   0.00000   0.01644   0.01644   2.08803
   R10        2.90860   0.01382   0.00000   0.01853   0.01841   2.92701
   R11        2.74450  -0.00283   0.00000  -0.00396  -0.00403   2.74048
   R12        2.71009  -0.01946   0.00000  -0.02141  -0.02141   2.68869
   R13        2.91891   0.00804   0.00000   0.01145   0.01145   2.93036
   R14        2.05718   0.01393   0.00000   0.01702   0.01702   2.07420
   R15        1.82303  -0.01551   0.00000  -0.01356  -0.01356   1.80947
   R16        2.06378   0.01354   0.00000   0.01669   0.01669   2.08047
   R17        2.66167  -0.00810   0.00000  -0.00832  -0.00832   2.65335
   R18        2.91355   0.00666   0.00000   0.01104   0.01116   2.92471
   R19        1.83346  -0.01549   0.00000  -0.01377  -0.01377   1.81970
   R20        2.68606  -0.00028   0.00000  -0.00026  -0.00018   2.68588
   R21        2.06996   0.02219   0.00000   0.02755   0.02755   2.09752
   R22        2.83460  -0.00654   0.00000  -0.00844  -0.00844   2.82616
   R23        2.55114   0.07353   0.00000   0.06485   0.06461   2.61576
   R24        3.15603  -0.08260   0.00000  -0.14884  -0.14876   3.00727
   R25        2.26779   0.08520   0.00000   0.04294   0.04294   2.31073
   R26        2.55114   0.06998   0.00000   0.06245   0.06213   2.61326
   R27        1.92774  -0.01344   0.00000  -0.01380  -0.01380   1.91394
   R28        2.70021  -0.00367   0.00000  -0.00294  -0.00305   2.69716
   R29        2.55114   0.01335   0.00000   0.00981   0.01014   2.56127
   R30        2.06000   0.00260   0.00000   0.00319   0.00319   2.06319
   R31        2.77808   0.03994   0.00000   0.04807   0.04807   2.82615
   R32        2.64569   0.08970   0.00000   0.08881   0.08905   2.73474
   R33        2.05996   0.00527   0.00000   0.00646   0.00646   2.06642
   R34        2.06005   0.00595   0.00000   0.00730   0.00730   2.06735
   R35        2.05989   0.00526   0.00000   0.00645   0.00645   2.06635
   R36        2.26790   0.05693   0.00000   0.02870   0.02870   2.29659
    A1        1.76739  -0.00613   0.00000  -0.01030  -0.01035   1.75704
    A2        2.00402  -0.00786   0.00000  -0.01318  -0.01325   1.99077
    A3        2.00439  -0.00796   0.00000  -0.01342  -0.01349   1.99090
    A4        1.83300   0.01787   0.00000   0.02793   0.02768   1.86068
    A5        1.83200   0.01717   0.00000   0.02683   0.02658   1.85858
    A6        1.98866  -0.00631   0.00000  -0.00750  -0.00800   1.98066
    A7        2.06502   0.02882   0.00000   0.04422   0.04422   2.10924
    A8        1.94306  -0.00244   0.00000  -0.00459  -0.00461   1.93844
    A9        1.94562  -0.00384   0.00000  -0.00832  -0.00835   1.93728
   A10        1.88820   0.00506   0.00000   0.00859   0.00859   1.89679
   A11        1.88135  -0.00010   0.00000  -0.00086  -0.00089   1.88046
   A12        1.91304   0.00037   0.00000   0.00222   0.00222   1.91526
   A13        1.89192   0.00103   0.00000   0.00322   0.00323   1.89515
   A14        1.90021   0.00296   0.00000   0.00560   0.00558   1.90579
   A15        1.99618  -0.00393   0.00000  -0.00661  -0.00661   1.98958
   A16        1.88394  -0.00134   0.00000  -0.00304  -0.00300   1.88094
   A17        1.91846   0.00112   0.00000   0.00459   0.00464   1.92310
   A18        1.89811  -0.00422   0.00000  -0.01026  -0.01025   1.88786
   A19        1.86438   0.00520   0.00000   0.00906   0.00901   1.87339
   A20        1.99646   0.00007   0.00000   0.00224   0.00229   1.99875
   A21        1.80671  -0.00136   0.00000  -0.00288  -0.00293   1.80379
   A22        1.94721   0.00298   0.00000   0.00614   0.00612   1.95334
   A23        1.91492   0.00096   0.00000   0.00131   0.00133   1.91625
   A24        1.84843  -0.00344   0.00000  -0.00970  -0.00970   1.83872
   A25        1.95270   0.00100   0.00000   0.00350   0.00352   1.95621
   A26        1.92800  -0.00979   0.00000  -0.01952  -0.01952   1.90847
   A27        1.91403   0.00224   0.00000   0.00258   0.00257   1.91661
   A28        1.98877   0.00518   0.00000   0.00997   0.00991   1.99868
   A29        1.77720  -0.00864   0.00000  -0.01223  -0.01204   1.76516
   A30        1.88042  -0.00471   0.00000  -0.00966  -0.00963   1.87078
   A31        1.90820   0.00316   0.00000   0.00776   0.00775   1.91595
   A32        1.99282   0.00302   0.00000   0.00226   0.00219   1.99502
   A33        1.85795  -0.00226   0.00000  -0.00451  -0.00451   1.85345
   A34        1.91518  -0.00811   0.00000  -0.01284  -0.01267   1.90251
   A35        1.82664   0.01169   0.00000   0.01607   0.01576   1.84240
   A36        1.92649  -0.00281   0.00000  -0.00227  -0.00207   1.92442
   A37        2.10883  -0.01266   0.00000  -0.02520  -0.02546   2.08337
   A38        1.94894  -0.00412   0.00000  -0.00873  -0.00856   1.94037
   A39        1.99318  -0.01078   0.00000  -0.02560  -0.02589   1.96730
   A40        1.65730   0.01823   0.00000   0.04681   0.04711   1.70441
   A41        2.03764   0.02009   0.00000   0.03143   0.03150   2.06914
   A42        2.13178  -0.02214   0.00000  -0.03452  -0.03454   2.09724
   A43        2.09442   0.00204   0.00000   0.00311   0.00309   2.09751
   A44        2.09441   0.00929   0.00000   0.01224   0.01245   2.10686
   A45        2.09436  -0.00427   0.00000  -0.00250  -0.00294   2.09142
   A46        2.09441  -0.00502   0.00000  -0.00974  -0.00952   2.08489
   A47        2.09439   0.00180   0.00000  -0.00057  -0.00044   2.09395
   A48        2.19716  -0.01419   0.00000  -0.02000  -0.02028   2.17688
   A49        1.99163   0.01239   0.00000   0.02057   0.02069   2.01232
   A50        1.91162   0.03867   0.00000   0.06119   0.06072   1.97234
   A51        1.91070  -0.01373   0.00000  -0.01114  -0.01287   1.89783
   A52        2.18941  -0.00492   0.00000   0.00808   0.00684   2.19625
   A53        1.91161   0.02802   0.00000   0.04600   0.04564   1.95725
   A54        2.27717  -0.02577   0.00000  -0.04555  -0.04483   2.23234
   A55        2.09441  -0.00225   0.00000  -0.00045  -0.00081   2.09360
   A56        1.91061   0.00095   0.00000   0.00161   0.00158   1.91219
   A57        1.91070   0.00800   0.00000   0.01608   0.01597   1.92667
   A58        1.91059   0.01078   0.00000   0.02166   0.02154   1.93213
   A59        1.91070  -0.00496   0.00000  -0.01018  -0.01021   1.90049
   A60        1.91062  -0.00630   0.00000  -0.01283  -0.01287   1.89775
   A61        1.91058  -0.00847   0.00000  -0.01634  -0.01653   1.89404
   A62        1.99164   0.00352   0.00000   0.00374   0.00404   1.99569
[...]
 0,-0.00001027,-0.00000129,0.00000007,-0.00001001,0.00000461,-0.0000011
 4,0.00000120,-0.00000183,0.00000072,-0.00000025,0.00000032,0.00001287,
 -0.00000365,0.00000132,-0.00003695,-0.00003781,-0.00012925,0.00002368,
 -0.00002248,0.00000373,0.00000019,0.00000086,0.00000043,0.00000001,0.0
 0000055,-0.00000018,0.00024986,-0.00007240,-0.00090826,0.00006267,0.00
 007957,-0.00001173,-0.00003053,-0.00012792,0.00004779,0.00030066,0.000
 10156,-0.00026983,-0.00001202,0.00004810,0.00001288,0.00001403,-0.0010
 5048,0.00026704,0.00501228,-0.00525851,0.00871103,-0.07912091,0.104394
 77,-0.18522890,0.08640839,-0.11260101,0.19961436,0.00000498,0.00000146
 ,0.00000033,-0.00001468,-0.00001623,0.00000083,0.00002288,0.00001508,-
 0.00000367,-0.00000651,-0.00001909,-0.00000097,-0.00000264,0.00000425,
 0.00000387,0.00000122,0.00000135,-0.00000056,-0.00005836,0.00002016,-0
 .00000710,0.00001173,-0.00000693,-0.00000215,-0.00000739,0.00002002,0.
 00002439,0.00001077,-0.00002605,-0.00000368,-0.00000278,0.00000665,0.0
 0000170,0.00002254,0.00003745,-0.00007061,-0.00000540,0.00000038,-0.00
 000764,-0.00000200,-0.00003704,0.00002897,-0.00000610,0.00000623,-0.00
 000051,0.00001138,-0.00000310,-0.00000204,0.00011646,-0.00001657,-0.00
 004262,-0.00026622,0.00004599,0.00005880,0.00003681,-0.00002412,-0.000
 00300,0.00000320,0.00000638,0.00000318,0.00000271,0.00000381,-0.000002
 65,0.00017922,-0.00076673,-0.00015037,0.00028356,0.00056536,0.00015660
 ,-0.00006844,-0.00036210,-0.00009731,-0.00004848,-0.00021539,-0.000061
 05,0.00007097,-0.00000106,0.00000598,0.00048807,0.00208336,0.00049519,
 0.00014333,0.00070773,0.00026832,-0.29016031,-0.07275970,-0.03158693,-
 0.01080392,-0.00298735,-0.00065131,0.31300601,0.00000160,0.00000025,0.
 00000018,-0.00000458,-0.00000447,-0.00000005,0.00000755,0.00000566,-0.
 00000032,0.00000057,-0.00001113,0.00000033,0.00000050,0.00000192,0.000
 00160,0.00000020,0.00000059,-0.00000022,-0.00001570,0.00001270,-0.0000
 1074,0.00000381,-0.00000188,-0.00000119,0.00000197,0.00001329,0.000023
 01,0.00000226,-0.00000863,-0.00000158,-0.00000187,0.00000174,0.0000007
 8,0.00002617,0.00000033,-0.00005267,0.00000965,-0.00000690,0.00001513,
 -0.00000547,-0.00000906,0.00001530,-0.00000050,0.00000430,-0.00000275,
 0.00000792,-0.00000165,-0.00000368,0.00008167,0.00002303,-0.00002084,-
 0.00016776,0.00011359,0.00008873,-0.00002736,0.00001283,0.00000320,0.0
 0000055,0.00000188,0.00000134,0.00000045,0.00000109,-0.00000113,0.0000
 7956,-0.00040058,-0.00002763,-0.00028007,0.00077534,0.00016550,0.00012
 675,-0.00040349,-0.00009867,-0.00197970,-0.00084372,-0.00038323,0.0001
 2975,-0.00047803,-0.00009566,-0.00175250,0.00209942,0.00037098,-0.0316
 3175,-0.01054190,-0.00394244,-0.06851759,-0.06805276,-0.00916752,0.016
 93175,0.00538974,0.00037606,0.07741206,0.07605602,-0.00000032,0.000000
 76,-0.00000057,-0.00000158,-0.00000252,0.00000194,0.00000386,0.0000031
 5,-0.00000103,-0.00000092,-0.00000397,0.00000090,0.00000020,0.00000041
 ,0.00000122,0.00000002,-0.00000028,-0.00000058,-0.00000468,0.00000297,
 -0.00000287,0.00000098,-0.00000083,-0.00000078,0.00000024,0.00000238,0
 .00000655,0.00000141,-0.00000456,-0.00000092,-0.00000032,0.00000059,0.
 00000001,0.00000595,0.00001383,-0.00000714,-0.00000258,0.00000245,-0.0
 0000417,0.00000092,-0.00000753,0.00000364,-0.00000033,0.00000152,-0.00
 000012,0.00000111,-0.00000038,-0.00000036,0.00002562,-0.00000245,-0.00
 000655,-0.00005383,0.00003966,-0.00000846,-0.00000385,-0.00000128,0.00
 000296,0.00000011,0.00000110,-0.00000074,-0.00000009,0.00000042,-0.000
 00081,0.00002713,-0.00007679,-0.00028240,-0.00004231,0.00022542,0.0000
 0718,0.00002004,-0.00013552,-0.00000166,-0.00045604,-0.00025181,0.0000
 8725,0.00003897,-0.00009084,-0.00008227,-0.00039632,0.00058220,0.00020
 490,-0.00701668,-0.00200330,-0.00254015,-0.03064821,-0.00940577,-0.050
 21078,-0.02185667,-0.00776401,-0.00226340,0.03421156,0.01197962,0.0489
 1757,-0.00000072,-0.00000002,-0.00000040,-0.00000015,-0.00000015,0.000
 00124,0.00000003,0.00000055,-0.00000020,-0.00000120,-0.00000127,-0.000
 00043,0.00000037,0.00000005,0.00000049,-0.00000005,0.00000019,-0.00000
 059,-0.00000160,-0.00000018,0.00000122,0.00000015,0.00000018,-0.000000
 52,-0.00000168,0.00000083,0.00000068,0.00000251,-0.00000171,-0.0000011
 7,-0.00000175,0.00000074,0.00000071,0.00000692,0.00000666,0.00000060,-
 0.00000529,0.00000079,-0.00000178,-0.00000126,-0.00000330,-0.00000394,
 -0.00000052,0.00000088,0.00000063,0.00000139,-0.00000084,-0.00000040,-
 0.00000163,0.00001695,-0.00000035,-0.00003512,0.00000004,0.00007317,-0
 .00000997,0.00001135,-0.00000058,-0.00000097,-0.00000025,-0.00000087,-
 0.00000036,0.00000033,-0.00000033,-0.00030822,-0.00016512,-0.00019025,
 0.00045834,0.00014963,-0.00004579,-0.00009506,-0.00021902,-0.00007027,
 0.00013735,0.00033794,0.00053452,-0.00001586,0.00005858,-0.00002749,0.
 00052151,0.00024263,0.00048176,0.00113610,0.00277245,-0.00251913,-0.11
 238921,0.02205115,0.11128667,0.00667567,-0.00298759,-0.01142594,-0.013
 66307,0.00604574,0.02540360,0.11777668,0.00001645,0.00000065,-0.000000
 06,-0.00004800,-0.00003900,0.00000846,0.00007167,0.00003452,-0.0000105
 7,-0.00002648,-0.00004037,0.00001013,-0.00000042,-0.00000057,0.0000020
 6,0.00000242,0.00000237,-0.00000144,-0.00017891,0.00004935,-0.00002141
 ,0.00003487,-0.00002202,-0.00000445,-0.00000880,0.00006078,0.00007312,
 0.00003001,-0.00006994,-0.00000789,-0.00001030,0.00001820,0.00000418,0
 .00007241,0.00004305,-0.00023252,-0.00002146,0.00001390,-0.00002073,-0
 .00000271,-0.00009389,0.00008485,-0.00001274,0.00001908,-0.00000597,0.
 00003337,-0.00001094,-0.00000616,0.00032605,0.00001798,-0.00013679,-0.
 00087159,-0.00005343,0.00053325,0.00013048,-0.00007210,-0.00002469,0.0
 0000900,0.00001307,0.00000536,0.00000890,0.00000936,-0.00001024,0.0000
 7512,-0.00314117,0.00123500,0.00150471,0.00121386,0.00027038,-0.000363
 60,-0.00102664,-0.00037319,0.00000669,-0.00007554,0.00058103,-0.000005
 04,0.00004260,0.00000169,-0.00241064,-0.00047721,-0.00175157,0.0180279
 8,-0.01078715,-0.02768691,0.02312818,-0.05299623,-0.04121191,-0.009447
 56,0.00336241,0.01446226,-0.00366378,0.00102396,0.00828294,-0.02749971
 ,0.06196015,0.00000693,-0.00000007,0.,-0.00001944,-0.00001454,0.000003
 33,0.00002865,0.00001321,-0.00000375,-0.00000964,-0.00001599,0.0000032
 2,-0.00000054,-0.00000006,0.00000019,0.00000082,0.00000067,-0.00000017
 ,-0.00006022,0.00002218,-0.00000879,0.00001214,-0.00000772,-0.00000207
 ,-0.00000823,0.00002546,0.00002731,0.00001302,-0.00002896,-0.00000478,
 -0.00000403,0.00000687,0.00000191,0.00003137,0.00004543,-0.00007140,-0
 .00000602,-0.00000409,-0.00001083,-0.00000372,-0.00004348,0.00003151,-
 0.00000511,0.00000760,-0.00000158,0.00001208,-0.00000487,-0.00000276,0
 .00011918,-0.00000962,-0.00004661,-0.00033204,0.00007185,0.00012979,0.
 00003371,-0.00002187,-0.00000088,0.00000384,0.00000487,0.00000188,0.00
 000404,0.00000358,-0.00000379,-0.00019549,-0.00094805,-0.00032898,0.00
 070825,0.00050716,0.00004852,-0.00016541,-0.00041529,-0.00006813,-0.00
 028015,0.00008094,-0.00000740,0.00000587,-0.00002927,-0.00001319,-0.00
 116491,0.00066974,-0.00003813,0.00189935,-0.00357187,-0.00301523,0.111
 39253,-0.04133258,-0.23015189,0.01212992,-0.00375126,-0.02075282,-0.00
 251462,0.00196605,0.00493675,-0.12293776,0.04655148,0.24851824,0.00024
 117,-0.00000209,-0.00000262,-0.00067122,-0.00051441,0.00013540,0.00100
 242,0.00047613,-0.00015261,-0.00031673,-0.00059465,0.00014564,-0.00002
 145,0.00000005,0.00001935,0.00003968,0.00003664,-0.00002084,-0.0020914
 2,0.00089328,-0.00037925,0.00041439,-0.00026413,-0.00008168,-0.0002213
 1,0.00091640,0.00111820,0.00041796,-0.00103807,-0.00015867,-0.00010706
 ,0.00023607,0.00006096,0.00113218,0.00164251,-0.00296082,-0.00008154,-
 0.00013807,-0.00019646,-0.00020683,-0.00149716,0.00116382,-0.00019868,
 0.00026086,-0.00006001,0.00045307,-0.00015924,-0.00012141,0.00477641,-
 0.00069064,-0.00180800,-0.01062904,0.00375772,0.00310951,0.00125850,-0
 .00070936,-0.00000069,0.00013499,0.00017614,0.00006468,0.00013038,0.00
 012653,-0.00014787,-0.00985325,-0.04096113,-0.00976369,0.03771192,0.03
 134120,0.01063336,-0.00843677,-0.00246546,-0.00165285,-0.14418332,-0.0
 2135673,-0.01171766,0.00768598,-0.03412591,-0.00769623,-0.05160300,0.0
 3916348,0.00679912,-0.16148435,-0.06049731,-0.01875442,0.00071050,-0.0
 1064047,-0.00277829,-0.00089209,0.00301781,-0.00098184,0.00037840,0.00
 244957,0.00052122,-0.00099360,0.00224094,0.00200404,0.83595260,-0.0000
 3625,-0.00000522,-0.00000031,0.00010417,0.00009540,-0.00001624,-0.0001
 6319,-0.00011737,0.00001933,0.00000225,0.00017549,0.00003016,-0.000005
 90,-0.00001681,-0.00002615,-0.00000877,-0.00001419,0.00000195,0.000273
 33,-0.00005135,0.00028996,-0.00010642,0.00004343,-0.00000498,-0.000012
 96,-0.00015617,-0.00039390,-0.00009480,0.00018342,0.00003465,0.0000351
 2,-0.00005083,-0.00001549,-0.00053267,0.00045352,0.00111522,-0.0000766
 8,-0.00005672,-0.00025326,-0.00006894,0.00005678,-0.00024893,-0.000003
 84,-0.00007882,0.00002085,-0.00012894,0.00002345,0.00003627,-0.0018555
 6,-0.00062041,0.00020850,0.00060905,-0.00201347,-0.00143540,0.00065842
 ,-0.00017666,-0.00007593,-0.00001834,-0.00003446,-0.00001454,-0.000019
 75,-0.00002415,0.00002240,-0.02523065,-0.02297705,-0.00648280,0.078134
 08,-0.03773087,-0.00062379,-0.01425981,0.02221961,0.00299596,-0.052954
 29,-0.20020385,-0.04042746,-0.00298142,-0.01098720,-0.00264695,0.01452
 239,0.04580703,0.01132136,-0.04848159,-0.13787658,-0.01602580,-0.02856
 970,-0.01627578,-0.00576264,-0.00110746,-0.00019509,0.00044376,0.00106
 029,-0.00545759,-0.00142320,-0.00079567,0.00003872,-0.00094728,-0.1184
 1435,0.56832700,-0.00000036,0.00000008,-0.00000034,-0.00000101,0.00000
 229,0.00000386,-0.00000824,-0.00000571,-0.00000207,-0.00000206,0.00000
 318,-0.00000298,-0.00000623,0.00000018,0.00000304,0.00000085,0.0000021
 8,0.00000074,0.00003778,0.00000816,0.00001742,-0.00000754,-0.00000578,
 0.00000226,-0.00012027,0.00003051,-0.00006083,0.00004188,-0.00002499,-
 0.00002586,0.00000261,-0.00000246,0.00000301,-0.00004197,0.00059945,0.
 00039582,0.00001950,-0.00021421,-0.00010685,-0.00004692,-0.00017808,-0
 .00003163,-0.00004160,-0.00001099,-0.00000383,-0.00001130,0.00000035,-
 0.00000161,-0.00013837,0.00002738,-0.00005299,-0.00055005,-0.00010439,
 -0.00080200,0.00020584,-0.00017302,0.00000860,0.00000209,-0.00000318,-
 0.00000306,-0.00000212,-0.00000026,-0.00000071,-0.00673136,-0.00710236
 ,-0.00582875,0.02221565,-0.00368495,-0.01412904,-0.00435064,0.00333910
 ,0.00800612,-0.01921794,-0.03761701,-0.05988596,-0.00023957,-0.0051109
 1,-0.00068211,0.00015966,0.01240651,0.00396668,-0.01694688,-0.01702495
 ,-0.08493240,-0.00645114,-0.00464364,-0.00020811,0.00020152,-0.0001875
 1,0.00068712,0.00021178,-0.00133024,0.00090626,-0.00081678,0.00019632,
 0.00054464,0.01134141,0.08134823,0.21763803,-0.00017767,0.00000064,0.0
 0000192,0.00049745,0.00038343,-0.00010022,-0.00073807,-0.00035182,0.00
 011315,0.00023380,0.00043473,-0.00010435,0.00001534,0.00000172,-0.0000
 1289,-0.00002960,-0.00002748,0.00001662,0.00157803,-0.00062829,0.00034
 679,-0.00032984,0.00020078,0.00004821,0.00018500,-0.00067593,-0.000885
 89,-0.00032198,0.00078340,0.00012211,0.00008115,-0.00017494,-0.0000457
 7,-0.00087045,-0.00105610,0.00235451,0.00006357,0.00004897,0.00015530,
 0.00013225,0.00109498,-0.00085424,0.00014207,-0.00019194,0.00004190,-0
 .00033934,0.00011452,0.00009526,-0.00358078,0.00055728,0.00133481,0.00
 674548,-0.00314296,-0.00247752,-0.00045043,0.00046471,-0.00001486,-0.0
 0009973,-0.00013162,-0.00004834,-0.00009633,-0.00009433,0.00010940,-0.
 00086999,0.01847897,0.00387577,0.00430178,-0.01217220,-0.00291272,-0.0
 0124675,0.00921758,0.00240345,-0.01085662,0.05649885,0.01194837,-0.001
 26808,0.00210341,0.00063280,0.00376490,-0.02689475,-0.00660228,-0.0789
 1263,0.02577911,-0.00027715,0.00197653,0.00468837,0.00143980,0.0007069
 9,-0.00132867,0.00014703,-0.00010284,0.00019381,0.00001468,0.00062247,
 -0.00114772,-0.00067651,-0.49933987,0.19698302,0.02091765,0.58008374,0
 .00007535,0.00000222,-0.00000056,-0.00021236,-0.00017245,0.00004093,0.
 00032094,0.00016727,-0.00004745,-0.00008283,-0.00021926,0.00002783,-0.
 00000410,0.00000512,0.00001447,0.00001349,0.00001409,-0.00000689,-0.00
 066053,0.00026123,-0.00021479,0.00015010,-0.00008487,-0.00001842,-0.00
 004774,0.00031564,0.00047197,0.00014111,-0.00034504,-0.00005551,-0.000
 03894,0.00007886,0.00002201,0.00048565,0.00024920,-0.00127669,0.000024
 46,-0.00000247,0.00003984,-0.00004632,-0.00042427,0.00039653,-0.000052
 55,0.00009705,-0.00002186,0.00017012,-0.00005196,-0.00005292,0.0018636
 8,0.00000896,-0.00058620,-0.00280025,0.00188811,0.00154728,-0.00011363
 ,-0.00012332,0.00003212,0.00004024,0.00005995,0.00002307,0.00004063,0.
 00004258,-0.00004669,0.00758457,-0.00301777,0.00010108,-0.02138158,0.0
 0795595,-0.00136874,0.00510152,-0.01009276,-0.00186946,0.07602866,-0.0
 6584841,-0.01517765,0.00066913,0.00489304,0.00204505,-0.00738724,0.000
 74151,-0.00107309,0.00937623,0.01673627,-0.00062158,-0.00174345,-0.000
 11946,0.00024956,0.00014051,0.00130744,-0.00060297,-0.00080769,0.00080
 418,0.00010072,0.00008726,0.00089381,0.00114747,0.20510740,-0.19939441
 ,-0.01751162,-0.27153578,0.24269606,0.00000928,0.00000039,0.00000076,-
 0.00002446,-0.00002109,0.00000383,0.00004186,0.00002057,-0.00000550,-0
 .00000898,-0.00002885,0.00000881,0.00000293,0.00000044,-0.00000035,0.0
 0000088,-0.00000044,-0.00000050,-0.00007356,0.00004673,-0.00004075,0.0
 0001626,-0.00000771,-0.00000256,0.00000970,0.00002033,0.00004130,0.000
 00779,-0.00003140,0.00000049,-0.00000462,0.00000932,0.00000054,0.00002
 732,-0.00004872,-0.00017665,-0.00000005,0.00004164,0.00003215,0.000007
 82,-0.00000786,0.00005765,0.00000495,0.00001238,-0.00000176,0.00001490
 ,-0.00000478,-0.00000294,0.00026700,-0.00007426,-0.00005215,-0.0002465
 5,0.00032688,-0.00001955,-0.00002827,0.00002609,-0.00000196,0.00000509
 ,0.00000800,0.00000393,0.00000447,0.00000456,-0.00000399,0.00188897,0.
 00043983,0.00025999,-0.00538413,-0.00074329,0.00683800,0.00120291,-0.0
 0142174,-0.00187868,0.01662733,-0.01645486,0.01411769,0.00030529,0.002
 20089,-0.00285266,-0.00177883,-0.00225441,0.00320807,-0.00388973,0.000
 40582,0.02171857,-0.00018795,0.00066923,-0.00204643,0.00003832,0.00021
 238,-0.00013565,-0.00020029,0.00015807,0.00015617,0.00005785,0.0001261
 6,0.00027493,0.02283445,-0.01801357,-0.07608147,-0.03142391,0.03353339
 ,0.03910614,0.00004785,0.00000101,0.00000072,-0.00014464,-0.00011100,0
 .00003301,0.00022809,0.00001523,-0.00007080,-0.00012871,0.00010823,0.0
 0020135,-0.00042204,-0.00003942,0.00004326,0.00000239,-0.00002438,-0.0
 0003261,-0.00037930,0.00031428,0.00006207,0.00003021,-0.00004878,-0.00
 002405,-0.00000925,0.00016154,0.00005538,-0.00000436,-0.00005785,0.000
 01754,-0.00000294,0.00001934,-0.00000284,-0.00025346,0.00063014,-0.000
 13236,-0.00037392,0.00085147,-0.00031297,-0.00000550,-0.00004194,0.000
 10947,0.00000019,0.00002774,-0.00001129,0.00001023,-0.00000243,-0.0000
 0193,-0.00032681,0.00108726,-0.00000163,-0.00102894,0.00094666,0.00027
 760,0.00016257,-0.00020165,0.00002844,0.00002807,0.00003300,0.00000969
 ,0.00002696,0.00002753,-0.00003130,0.00338441,-0.00225199,-0.00029626,
 0.00169801,0.00150108,0.00040033,-0.00004807,-0.00007594,-0.00002962,0
 .00020306,0.00029020,0.00010479,-0.00003682,-0.00004212,-0.00000357,-0
 .30554806,-0.09641066,-0.03414844,-0.01663232,-0.00942501,-0.00318071,
 0.00083035,-0.00163181,-0.00018156,0.00018391,-0.00004801,0.00002651,0
 .00042487,0.00087100,0.00020711,0.00018784,0.00000022,-0.00002188,-0.0
 0110902,0.00354585,0.00037416,-0.00149955,-0.00050606,-0.00012401,0.32
 050470,-0.00006018,-0.00000132,-0.00000053,0.00017328,0.00013867,-0.00
 002997,-0.00024499,-0.00007942,0.00004715,0.00017241,0.00003989,-0.000
 08018,0.00008260,0.00003655,0.00004881,-0.00001163,-0.00000535,0.00000
 813,0.00078792,-0.00019473,-0.00010385,-0.00016001,0.00008567,0.000016
 75,0.00027463,-0.00013350,0.00002975,-0.00015002,0.00028533,0.00004931
 ,-0.00000538,-0.00003808,-0.00000879,0.00025870,-0.00113544,-0.0000598
 2,0.00063269,-0.00040369,0.00105338,-0.00006011,0.00064618,-0.00019168
 ,0.00008920,0.00001253,-0.00003980,-0.00001862,0.00001975,-0.00002915,
 0.00011508,0.00104734,0.00028951,-0.00254493,-0.00065248,0.00032880,-0
 .00004944,0.00012168,0.00013480,-0.00003625,-0.00004858,-0.00001889,-0
 .00003246,-0.00003400,0.00003622,-0.03343917,-0.01604777,-0.00633069,0
 .00549947,-0.00293317,-0.00064714,-0.00207477,-0.00197215,-0.00073337,
 -0.00034504,0.00075989,0.00032083,-0.00005444,0.00005869,0.00006138,-0
 .09027983,-0.09195335,-0.01499559,0.01631256,0.01060996,0.00118668,0.0
 0134765,0.00103254,0.00161109,-0.00002374,-0.00028032,-0.00014559,-0.0
 0028509,-0.00012009,-0.00006512,-0.00011006,0.00008836,0.00002230,0.00
 222644,-0.00290879,-0.00302766,0.00152624,0.00067790,0.00084989,0.1004
 8729,0.10328129,-0.00001850,0.00000098,-0.00000145,0.00007117,0.000033
 77,0.00000127,-0.00007578,-0.00001791,0.00000779,0.00005243,-0.0000145
 9,-0.00004171,0.00006233,0.00005008,-0.00006304,0.00000763,-0.00000337
 ,-0.00001201,0.00045615,0.00007999,0.00014089,-0.00010956,0.00006454,-
 0.00002414,-0.00016474,-0.00012941,0.00003946,0.00008219,-0.00006370,-
 0.00007641,0.00000021,-0.00001745,0.00001720,0.00008280,0.00047669,0.0
 0033357,-0.00061988,0.00077107,-0.00037977,0.00006893,-0.00012534,-0.0
 0006080,-0.00002017,-0.00001936,0.00001207,-0.00000233,0.00001756,-0.0
 0001186,0.00011450,0.00017458,0.00001853,-0.00088801,-0.00003769,-0.00
 096947,0.00004678,0.00008977,-0.00016243,-0.00000974,-0.00000813,-0.00
 000601,-0.00001641,-0.00000148,0.00000262,-0.00748623,-0.00449636,0.00
 140217,0.00137301,-0.00130956,0.00276329,-0.00055532,-0.00049082,-0.00
 016999,-0.00010430,0.00045157,-0.00067402,0.00001177,0.00008617,-0.000
 23566,-0.03123551,-0.01461870,-0.04507895,0.00185078,-0.00037610,0.009
 20249,0.00071787,0.00147906,-0.00567090,-0.00028978,0.00077879,0.00033
 899,-0.00006242,-0.00002531,0.00018244,0.00020183,-0.00092215,0.000010
 95,-0.00051522,-0.00304998,0.01065900,0.00031712,0.00075978,-0.0025254
 9,0.03665639,0.02041301,0.03103135\\-0.00000324,-0.00001301,-0.0000055
 2,0.00000445,-0.00001247,0.00000170,0.00000199,-0.00000466,-0.00000444
 ,-0.00000038,-0.00000663,-0.00000197,0.00000129,-0.00000437,-0.0000027
 8,0.00000054,-0.00000688,-0.00000260,-0.00000652,-0.00000381,0.0000018
 4,-0.00000379,-0.00000537,0.00000071,-0.00000192,-0.00000418,0.0000007
 3,-0.00000423,-0.00000160,0.00000243,-0.00000742,-0.00000341,0.0000059
 8,-0.00000045,0.00000291,0.00000227,-0.00000022,0.00000283,0.00000107,
 -0.00000468,0.00000554,0.00000394,-0.00000367,-0.00000121,0.00000299,-
 0.00000114,-0.00000252,0.00000137,-0.00000241,-0.00000375,0.00000266,0
 .00000093,0.00000111,-0.00000122,-0.00000353,0.00000121,0.00000424,0.0
 0000341,-0.00000893,-0.00000404,0.00000021,-0.00001501,-0.00000768,-0.
 00000186,0.00000566,0.00000166,-0.00000053,0.00000549,0.00000405,-0.00
 000454,0.00000401,0.00000455,-0.00000076,0.00000755,0.00000301,-0.0000
 0156,0.00000866,0.00000349,0.00000199,0.00000233,-0.00000089,0.0000030
 9,0.00000538,-0.00000126,0.00000623,0.00000617,-0.00000296,0.00000678,
 0.00000597,-0.00000392,0.00000676,0.00000456,-0.00000419,0.00000679,0.
 00000856,-0.00000344,0.00000217,0.00000795,0.00000024,0.00000279,0.000
 01017,0.00000016,0.00000342,0.00000177,-0.00000220\\\@


 WE'RE IN THE POSITION OF A VISITOR FROM ANOTHER
 DIMENSION WHO COMES TO EARTH AND SEES A CHESS MATCH.
 ASSUMING HE KNOWS IT'S A GAME, HE'S GOT TWO PROBLEMS:
 FIRST, FIGURE OUT THE RULES, AND SECOND, FIGURE OUT HOW TO WIN.
 NINETY PERCENT OF SCIENCE (INCLUDING VIRTUALLY ALL OF CHEMISRY)
 IS IN THAT SECOND CATEGORY.  THEY'RE TRYING TO APPLY
 THE LAWS THAT ARE ALREADY KNOWN.

                     -- SHELDON GLASHOW, 1979
 Job cpu time:       0 days 22 hours 36 minutes  6.7 seconds.
 Elapsed time:       0 days  5 hours 40 minutes 19.2 seconds.
 File lengths (MBytes):  RWF=   1544 Int=      0 D2E=      0 Chk=     44 Scr=      1
 Normal termination of Gaussian 16 at Tue Jun 23 10:09:16 2020.
